REMARK  Name = 
REMARK  5 active torsions:
REMARK  status: ('A' for Active; 'I' for Inactive)
REMARK    1  A    between atoms: C_1  and  C_2
REMARK    2  A    between atoms: C_2  and  C_21
REMARK    3  A    between atoms: C_11  and  C_20
REMARK    4  A    between atoms: C_15  and  C_16
REMARK    5  A    between atoms: C_15  and  C_17
REMARK                            x       y       z     vdW  Elec       q    Type
REMARK                         _______ _______ _______ _____ _____    ______ ____
ROOT
ATOM      1  C   UNL     1       3.391   0.036   0.241  0.00  0.00    +0.004 C 
ATOM      2  C   UNL     1       2.747   0.372  -1.122  0.00  0.00    -0.040 C 
ATOM      3  C   UNL     1       1.667  -0.639  -1.519  0.00  0.00    -0.045 C 
ATOM      4  C   UNL     1       0.555  -0.827  -0.442  0.00  0.00    -0.014 C 
ATOM      5  C   UNL     1       1.057  -0.596   0.984  0.00  0.00    -0.069 C 
ATOM      6  C   UNL     1       2.313  -0.194   1.279  0.00  0.00    -0.075 C 
ATOM      7  C   UNL     1       0.084  -0.859   2.104  0.00  0.00    -0.031 C 
ATOM      8  C   UNL     1      -1.212  -0.085   1.865  0.00  0.00    -0.045 C 
ATOM      9  C   UNL     1      -1.806  -0.414   0.469  0.00  0.00    -0.019 C 
ATOM     10  C   UNL     1      -0.797  -0.040  -0.697  0.00  0.00    -0.022 C 
ATOM     11  C   UNL     1      -1.426  -0.501  -2.049  0.00  0.00    -0.047 C 
ATOM     12  C   UNL     1      -2.844   0.030  -2.269  0.00  0.00    -0.052 C 
ATOM     13  C   UNL     1      -3.781  -0.407  -1.144  0.00  0.00    -0.037 C 
ATOM     14  C   UNL     1      -3.306   0.051   0.266  0.00  0.00    +0.073 C 
ATOM     15  H   UNL     1       2.303   1.389  -1.083  0.00  0.00    +0.028 HD
ATOM     16  H   UNL     1       3.522   0.392  -1.920  0.00  0.00    +0.028 HD
ATOM     17  H   UNL     1       2.156  -1.620  -1.705  0.00  0.00    +0.027 HD
ATOM     18  H   UNL     1       1.261  -0.334  -2.499  0.00  0.00    +0.027 HD
ATOM     19  H   UNL     1       0.296  -1.909  -0.483  0.00  0.00    +0.035 HD
ATOM     20  H   UNL     1       2.603  -0.106   2.324  0.00  0.00    +0.058 HD
ATOM     21  H   UNL     1       0.497  -0.562   3.093  0.00  0.00    +0.031 HD
ATOM     22  H   UNL     1      -0.132  -1.948   2.146  0.00  0.00    +0.031 HD
ATOM     23  H   UNL     1      -1.006   1.000   1.967  0.00  0.00    +0.027 HD
ATOM     24  H   UNL     1      -1.912  -0.369   2.674  0.00  0.00    +0.027 HD
ATOM     25  H   UNL     1      -1.869  -1.528   0.446  0.00  0.00    +0.032 HD
ATOM     26  H   UNL     1      -1.455  -1.613  -2.091  0.00  0.00    +0.027 HD
ATOM     27  H   UNL     1      -0.825  -0.159  -2.915  0.00  0.00    +0.027 HD
ATOM     28  H   UNL     1      -2.835   1.134  -2.373  0.00  0.00    +0.027 HD
ATOM     29  H   UNL     1      -3.230  -0.377  -3.229  0.00  0.00    +0.027 HD
ATOM     30  H   UNL     1      -4.803  -0.022  -1.357  0.00  0.00    +0.028 HD
ATOM     31  H   UNL     1      -3.851  -1.518  -1.174  0.00  0.00    +0.028 HD
ENDROOT
BRANCH   1  32
ATOM     32  C   UNL     1       4.252   1.212   0.688  0.00  0.00    -0.081 C 
ATOM     33  C   UNL     1       5.316   1.639  -0.003  0.00  0.00    -0.102 C 
ATOM     34  H   UNL     1       3.999   1.746   1.601  0.00  0.00    +0.057 HD
ATOM     35  H   UNL     1       5.622   1.158  -0.926  0.00  0.00    +0.053 HD
ATOM     36  H   UNL     1       5.892   2.485   0.358  0.00  0.00    +0.053 HD
ENDBRANCH   1  32
BRANCH   1  37
ATOM     37  C   UNL     1       4.260  -1.238   0.161  0.00  0.00    -0.053 C 
ATOM     38  H   UNL     1       3.635  -2.142   0.002  0.00  0.00    +0.024 HD
ATOM     39  H   UNL     1       4.991  -1.172  -0.672  0.00  0.00    +0.024 HD
ATOM     40  H   UNL     1       4.822  -1.382   1.109  0.00  0.00    +0.024 HD
ENDBRANCH   1  37
BRANCH  14  41
ATOM     41  C   UNL     1      -4.236  -0.657   1.285  0.00  0.00    -0.049 C 
ATOM     42  H   UNL     1      -5.303  -0.471   1.033  0.00  0.00    +0.024 HD
ATOM     43  H   UNL     1      -4.086  -0.285   2.319  0.00  0.00    +0.024 HD
ATOM     44  H   UNL     1      -4.071  -1.756   1.281  0.00  0.00    +0.024 HD
ENDBRANCH  14  41
BRANCH  10  45
ATOM     45  C   UNL     1      -0.495   1.483  -0.764  0.00  0.00    -0.059 C 
ATOM     46  H   UNL     1      -1.407   2.097  -0.834  0.00  0.00    +0.024 HD
ATOM     47  H   UNL     1       0.097   1.721  -1.671  0.00  0.00    +0.024 HD
ATOM     48  H   UNL     1       0.083   1.827   0.118  0.00  0.00    +0.024 HD
ENDBRANCH  10  45
BRANCH  14  49
ATOM     49  C   UNL     1      -3.507   1.550   0.465  0.00  0.00    +0.362 C 
ATOM     50  O   UNL     1      -4.042   2.260  -0.429  0.00  0.00    -0.246 OA
ATOM     51  O   UNL     1      -3.181   2.147   1.676  0.00  0.00    -0.246 OA
ENDBRANCH  14  49
TORSDOF 5
