REMARK  Name = 
REMARK  5 active torsions:
REMARK  status: ('A' for Active; 'I' for Inactive)
REMARK    1  A    between atoms: C_1  and  C_2
REMARK    2  A    between atoms: C_2  and  C_21
REMARK    3  A    between atoms: C_11  and  C_20
REMARK    4  A    between atoms: C_15  and  C_16
REMARK    5  A    between atoms: C_15  and  C_17
REMARK                            x       y       z     vdW  Elec       q    Type
REMARK                         _______ _______ _______ _____ _____    ______ ____
ROOT
ATOM      1  C   UNL     1       3.384  -0.848   0.942  0.00  0.00    +0.004 C 
ATOM      2  C   UNL     1       3.174  -0.967  -0.587  0.00  0.00    -0.040 C 
ATOM      3  C   UNL     1       2.008  -0.102  -1.059  0.00  0.00    -0.045 C 
ATOM      4  C   UNL     1       0.687  -0.556  -0.385  0.00  0.00    -0.014 C 
ATOM      5  C   UNL     1       0.850  -0.733   1.123  0.00  0.00    -0.069 C 
ATOM      6  C   UNL     1       2.062  -0.935   1.692  0.00  0.00    -0.075 C 
ATOM      7  C   UNL     1      -0.378  -1.058   1.938  0.00  0.00    -0.031 C 
ATOM      8  C   UNL     1      -1.568  -0.180   1.558  0.00  0.00    -0.045 C 
ATOM      9  C   UNL     1      -1.817  -0.167   0.029  0.00  0.00    -0.019 C 
ATOM     10  C   UNL     1      -0.553   0.350  -0.762  0.00  0.00    -0.022 C 
ATOM     11  C   UNL     1      -0.806   0.231  -2.313  0.00  0.00    -0.047 C 
ATOM     12  C   UNL     1      -2.280   0.124  -2.735  0.00  0.00    -0.052 C 
ATOM     13  C   UNL     1      -3.172   0.998  -1.861  0.00  0.00    -0.037 C 
ATOM     14  C   UNL     1      -3.202   0.503  -0.378  0.00  0.00    +0.073 C 
ATOM     15  H   UNL     1       4.099  -0.667  -1.128  0.00  0.00    +0.028 HD
ATOM     16  H   UNL     1       2.959  -2.022  -0.868  0.00  0.00    +0.028 HD
ATOM     17  H   UNL     1       2.245   0.954  -0.832  0.00  0.00    +0.027 HD
ATOM     18  H   UNL     1       1.928  -0.195  -2.163  0.00  0.00    +0.027 HD
ATOM     19  H   UNL     1       0.477  -1.581  -0.768  0.00  0.00    +0.035 HD
ATOM     20  H   UNL     1       2.114  -1.137   2.760  0.00  0.00    +0.058 HD
ATOM     21  H   UNL     1      -0.640  -2.126   1.769  0.00  0.00    +0.031 HD
ATOM     22  H   UNL     1      -0.184  -0.926   3.026  0.00  0.00    +0.031 HD
ATOM     23  H   UNL     1      -2.458  -0.588   2.082  0.00  0.00    +0.027 HD
ATOM     24  H   UNL     1      -1.400   0.848   1.943  0.00  0.00    +0.027 HD
ATOM     25  H   UNL     1      -1.899  -1.242  -0.257  0.00  0.00    +0.032 HD
ATOM     26  H   UNL     1      -0.307  -0.669  -2.731  0.00  0.00    +0.027 HD
ATOM     27  H   UNL     1      -0.350   1.092  -2.850  0.00  0.00    +0.027 HD
ATOM     28  H   UNL     1      -2.611  -0.935  -2.678  0.00  0.00    +0.027 HD
ATOM     29  H   UNL     1      -2.379   0.440  -3.796  0.00  0.00    +0.027 HD
ATOM     30  H   UNL     1      -4.197   1.014  -2.293  0.00  0.00    +0.028 HD
ATOM     31  H   UNL     1      -2.797   2.038  -1.954  0.00  0.00    +0.028 HD
ENDROOT
BRANCH   1  32
ATOM     32  C   UNL     1       4.120   0.447   1.274  0.00  0.00    -0.081 C 
ATOM     33  C   UNL     1       3.513   1.616   1.520  0.00  0.00    -0.102 C 
ATOM     34  H   UNL     1       5.207   0.444   1.257  0.00  0.00    +0.057 HD
ATOM     35  H   UNL     1       4.107   2.502   1.719  0.00  0.00    +0.053 HD
ATOM     36  H   UNL     1       2.433   1.709   1.528  0.00  0.00    +0.053 HD
ENDBRANCH   1  32
BRANCH   1  37
ATOM     37  C   UNL     1       4.266  -2.026   1.403  0.00  0.00    -0.053 C 
ATOM     38  H   UNL     1       4.494  -1.945   2.489  0.00  0.00    +0.024 HD
ATOM     39  H   UNL     1       3.750  -2.995   1.229  0.00  0.00    +0.024 HD
ATOM     40  H   UNL     1       5.228  -2.039   0.846  0.00  0.00    +0.024 HD
ENDBRANCH   1  37
BRANCH  14  41
ATOM     41  C   UNL     1      -4.322  -0.566  -0.266  0.00  0.00    -0.049 C 
ATOM     42  H   UNL     1      -4.364  -1.002   0.755  0.00  0.00    +0.024 HD
ATOM     43  H   UNL     1      -5.317  -0.121  -0.487  0.00  0.00    +0.024 HD
ATOM     44  H   UNL     1      -4.157  -1.401  -0.979  0.00  0.00    +0.024 HD
ENDBRANCH  14  41
BRANCH  10  45
ATOM     45  C   UNL     1      -0.250   1.833  -0.396  0.00  0.00    -0.059 C 
ATOM     46  H   UNL     1      -1.141   2.473  -0.476  0.00  0.00    +0.024 HD
ATOM     47  H   UNL     1       0.500   2.280  -1.080  0.00  0.00    +0.024 HD
ATOM     48  H   UNL     1       0.143   1.926   0.636  0.00  0.00    +0.024 HD
ENDBRANCH  10  45
BRANCH  14  49
ATOM     49  C   UNL     1      -3.600   1.656   0.550  0.00  0.00    +0.362 C 
ATOM     50  O   UNL     1      -3.475   2.860   0.199  0.00  0.00    -0.246 OA
ATOM     51  O   UNL     1      -4.122   1.390   1.812  0.00  0.00    -0.246 OA
ENDBRANCH  14  49
TORSDOF 5
