REMARK  Name = 
REMARK  5 active torsions:
REMARK  status: ('A' for Active; 'I' for Inactive)
REMARK    1  A    between atoms: C_1  and  C_2
REMARK    2  A    between atoms: C_2  and  C_21
REMARK    3  A    between atoms: C_11  and  C_20
REMARK    4  A    between atoms: C_15  and  C_16
REMARK    5  A    between atoms: C_15  and  C_17
REMARK                            x       y       z     vdW  Elec       q    Type
REMARK                         _______ _______ _______ _____ _____    ______ ____
ROOT
ATOM      1  C   UNL     1       3.227  -0.819   1.143  0.00  0.00    +0.004 C 
ATOM      2  C   UNL     1       2.835  -1.664  -0.094  0.00  0.00    -0.040 C 
ATOM      3  C   UNL     1       1.736  -0.967  -0.894  0.00  0.00    -0.045 C 
ATOM      4  C   UNL     1       0.449  -0.808  -0.040  0.00  0.00    -0.014 C 
ATOM      5  C   UNL     1       0.747  -0.361   1.391  0.00  0.00    -0.069 C 
ATOM      6  C   UNL     1       1.983  -0.457   1.934  0.00  0.00    -0.075 C 
ATOM      7  C   UNL     1      -0.428  -0.125   2.307  0.00  0.00    -0.031 C 
ATOM      8  C   UNL     1      -1.490   0.743   1.639  0.00  0.00    -0.045 C 
ATOM      9  C   UNL     1      -1.896   0.198   0.245  0.00  0.00    -0.019 C 
ATOM     10  C   UNL     1      -0.655   0.093  -0.724  0.00  0.00    -0.022 C 
ATOM     11  C   UNL     1      -1.089  -0.590  -2.076  0.00  0.00    -0.047 C 
ATOM     12  C   UNL     1      -2.595  -0.554  -2.379  0.00  0.00    -0.052 C 
ATOM     13  C   UNL     1      -3.220   0.758  -1.922  0.00  0.00    -0.037 C 
ATOM     14  C   UNL     1      -3.181   0.915  -0.367  0.00  0.00    +0.073 C 
ATOM     15  H   UNL     1       3.715  -1.837  -0.751  0.00  0.00    +0.028 HD
ATOM     16  H   UNL     1       2.465  -2.663   0.227  0.00  0.00    +0.028 HD
ATOM     17  H   UNL     1       2.126   0.011  -1.237  0.00  0.00    +0.027 HD
ATOM     18  H   UNL     1       1.521  -1.574  -1.799  0.00  0.00    +0.027 HD
ATOM     19  H   UNL     1       0.025  -1.832   0.067  0.00  0.00    +0.035 HD
ATOM     20  H   UNL     1       2.116  -0.202   2.983  0.00  0.00    +0.058 HD
ATOM     21  H   UNL     1      -0.870  -1.109   2.579  0.00  0.00    +0.031 HD
ATOM     22  H   UNL     1      -0.112   0.376   3.249  0.00  0.00    +0.031 HD
ATOM     23  H   UNL     1      -2.375   0.759   2.310  0.00  0.00    +0.027 HD
ATOM     24  H   UNL     1      -1.110   1.784   1.561  0.00  0.00    +0.027 HD
ATOM     25  H   UNL     1      -2.193  -0.862   0.428  0.00  0.00    +0.032 HD
ATOM     26  H   UNL     1      -0.807  -1.665  -2.087  0.00  0.00    +0.027 HD
ATOM     27  H   UNL     1      -0.546  -0.137  -2.934  0.00  0.00    +0.027 HD
ATOM     28  H   UNL     1      -2.750  -0.674  -3.473  0.00  0.00    +0.027 HD
ATOM     29  H   UNL     1      -3.100  -1.410  -1.882  0.00  0.00    +0.027 HD
ATOM     30  H   UNL     1      -4.266   0.813  -2.298  0.00  0.00    +0.028 HD
ATOM     31  H   UNL     1      -2.675   1.572  -2.443  0.00  0.00    +0.028 HD
ENDROOT
BRANCH   1  32
ATOM     32  C   UNL     1       3.924   0.472   0.733  0.00  0.00    -0.081 C 
ATOM     33  C   UNL     1       5.077   0.497   0.052  0.00  0.00    -0.102 C 
ATOM     34  H   UNL     1       3.471   1.427   0.991  0.00  0.00    +0.057 HD
ATOM     35  H   UNL     1       5.526   1.447  -0.218  0.00  0.00    +0.053 HD
ATOM     36  H   UNL     1       5.582  -0.417  -0.242  0.00  0.00    +0.053 HD
ENDBRANCH   1  32
BRANCH   1  37
ATOM     37  C   UNL     1       4.157  -1.648   2.052  0.00  0.00    -0.053 C 
ATOM     38  H   UNL     1       4.505  -1.040   2.915  0.00  0.00    +0.024 HD
ATOM     39  H   UNL     1       3.623  -2.539   2.447  0.00  0.00    +0.024 HD
ATOM     40  H   UNL     1       5.048  -2.004   1.493  0.00  0.00    +0.024 HD
ENDBRANCH   1  37
BRANCH  14  41
ATOM     41  C   UNL     1      -4.452   0.230   0.205  0.00  0.00    -0.049 C 
ATOM     42  H   UNL     1      -4.463   0.264   1.315  0.00  0.00    +0.024 HD
ATOM     43  H   UNL     1      -4.508  -0.837  -0.098  0.00  0.00    +0.024 HD
ATOM     44  H   UNL     1      -5.372   0.736  -0.160  0.00  0.00    +0.024 HD
ENDBRANCH  14  41
BRANCH  10  45
ATOM     45  C   UNL     1      -0.070   1.509  -1.012  0.00  0.00    -0.059 C 
ATOM     46  H   UNL     1       0.483   1.906  -0.135  0.00  0.00    +0.024 HD
ATOM     47  H   UNL     1       0.633   1.500  -1.870  0.00  0.00    +0.024 HD
ATOM     48  H   UNL     1      -0.851   2.239  -1.272  0.00  0.00    +0.024 HD
ENDBRANCH  10  45
BRANCH  14  49
ATOM     49  C   UNL     1      -3.272   2.401   0.002  0.00  0.00    +0.362 C 
ATOM     50  O   UNL     1      -3.593   2.747   1.171  0.00  0.00    -0.246 OA
ATOM     51  O   UNL     1      -3.036   3.400  -0.936  0.00  0.00    -0.246 OA
ENDBRANCH  14  49
TORSDOF 5
