REMARK  Name = 
REMARK  5 active torsions:
REMARK  status: ('A' for Active; 'I' for Inactive)
REMARK    1  A    between atoms: C_1  and  C_2
REMARK    2  A    between atoms: C_2  and  C_21
REMARK    3  A    between atoms: C_11  and  C_20
REMARK    4  A    between atoms: C_15  and  C_16
REMARK    5  A    between atoms: C_15  and  C_17
REMARK                            x       y       z     vdW  Elec       q    Type
REMARK                         _______ _______ _______ _____ _____    ______ ____
ROOT
ATOM      1  C   UNL     1       3.436  -0.516  -0.327  0.00  0.00    +0.004 C 
ATOM      2  C   UNL     1       3.064   0.942  -0.684  0.00  0.00    -0.040 C 
ATOM      3  C   UNL     1       1.748   1.342  -0.020  0.00  0.00    -0.045 C 
ATOM      4  C   UNL     1       0.581   0.443  -0.508  0.00  0.00    -0.014 C 
ATOM      5  C   UNL     1       0.977  -1.029  -0.640  0.00  0.00    -0.069 C 
ATOM      6  C   UNL     1       2.268  -1.433  -0.643  0.00  0.00    -0.075 C 
ATOM      7  C   UNL     1      -0.089  -2.009  -1.073  0.00  0.00    -0.031 C 
ATOM      8  C   UNL     1      -1.397  -1.806  -0.303  0.00  0.00    -0.045 C 
ATOM      9  C   UNL     1      -1.846  -0.321  -0.330  0.00  0.00    -0.019 C 
ATOM     10  C   UNL     1      -0.746   0.602   0.332  0.00  0.00    -0.022 C 
ATOM     11  C   UNL     1      -1.215   2.083   0.255  0.00  0.00    -0.047 C 
ATOM     12  C   UNL     1      -2.608   2.295   0.845  0.00  0.00    -0.052 C 
ATOM     13  C   UNL     1      -3.645   1.448   0.107  0.00  0.00    -0.037 C 
ATOM     14  C   UNL     1      -3.339  -0.079   0.146  0.00  0.00    +0.073 C 
ATOM     15  H   UNL     1       2.955   1.049  -1.787  0.00  0.00    +0.028 HD
ATOM     16  H   UNL     1       3.865   1.644  -0.365  0.00  0.00    +0.028 HD
ATOM     17  H   UNL     1       1.538   2.402  -0.280  0.00  0.00    +0.027 HD
ATOM     18  H   UNL     1       1.880   1.288   1.078  0.00  0.00    +0.027 HD
ATOM     19  H   UNL     1       0.364   0.778  -1.548  0.00  0.00    +0.035 HD
ATOM     20  H   UNL     1       2.489  -2.484  -0.814  0.00  0.00    +0.058 HD
ATOM     21  H   UNL     1       0.244  -3.059  -0.920  0.00  0.00    +0.031 HD
ATOM     22  H   UNL     1      -0.276  -1.870  -2.160  0.00  0.00    +0.031 HD
ATOM     23  H   UNL     1      -2.157  -2.459  -0.775  0.00  0.00    +0.027 HD
ATOM     24  H   UNL     1      -1.258  -2.161   0.738  0.00  0.00    +0.027 HD
ATOM     25  H   UNL     1      -1.855  -0.038  -1.409  0.00  0.00    +0.032 HD
ATOM     26  H   UNL     1      -0.509   2.746   0.801  0.00  0.00    +0.027 HD
ATOM     27  H   UNL     1      -1.226   2.423  -0.805  0.00  0.00    +0.027 HD
ATOM     28  H   UNL     1      -2.881   3.367   0.736  0.00  0.00    +0.027 HD
ATOM     29  H   UNL     1      -2.608   2.073   1.932  0.00  0.00    +0.027 HD
ATOM     30  H   UNL     1      -4.650   1.655   0.537  0.00  0.00    +0.028 HD
ATOM     31  H   UNL     1      -3.677   1.798  -0.950  0.00  0.00    +0.028 HD
ENDROOT
BRANCH   1  32
ATOM     32  C   UNL     1       3.768  -0.658   1.154  0.00  0.00    -0.081 C 
ATOM     33  C   UNL     1       4.775  -0.002   1.743  0.00  0.00    -0.102 C 
ATOM     34  H   UNL     1       3.160  -1.312   1.775  0.00  0.00    +0.057 HD
ATOM     35  H   UNL     1       4.962  -0.138   2.803  0.00  0.00    +0.053 HD
ATOM     36  H   UNL     1       5.419   0.670   1.185  0.00  0.00    +0.053 HD
ENDBRANCH   1  32
BRANCH   1  37
ATOM     37  C   UNL     1       4.644  -0.958  -1.176  0.00  0.00    -0.053 C 
ATOM     38  H   UNL     1       5.503  -0.268  -1.038  0.00  0.00    +0.024 HD
ATOM     39  H   UNL     1       4.381  -0.963  -2.257  0.00  0.00    +0.024 HD
ATOM     40  H   UNL     1       4.970  -1.983  -0.893  0.00  0.00    +0.024 HD
ENDBRANCH   1  37
BRANCH  14  41
ATOM     41  C   UNL     1      -4.328  -0.740  -0.849  0.00  0.00    -0.049 C 
ATOM     42  H   UNL     1      -5.375  -0.458  -0.601  0.00  0.00    +0.024 HD
ATOM     43  H   UNL     1      -4.126  -0.416  -1.892  0.00  0.00    +0.024 HD
ATOM     44  H   UNL     1      -4.280  -1.848  -0.816  0.00  0.00    +0.024 HD
ENDBRANCH  14  41
BRANCH  10  45
ATOM     45  C   UNL     1      -0.473   0.224   1.821  0.00  0.00    -0.059 C 
ATOM     46  H   UNL     1      -1.400   0.086   2.400  0.00  0.00    +0.024 HD
ATOM     47  H   UNL     1       0.121  -0.709   1.907  0.00  0.00    +0.024 HD
ATOM     48  H   UNL     1       0.087   1.025   2.345  0.00  0.00    +0.024 HD
ENDBRANCH  10  45
BRANCH  14  49
ATOM     49  C   UNL     1      -3.641  -0.673   1.518  0.00  0.00    +0.362 C 
ATOM     50  O   UNL     1      -4.033   0.052   2.472  0.00  0.00    -0.246 OA
ATOM     51  O   UNL     1      -3.559  -2.046   1.722  0.00  0.00    -0.246 OA
ENDBRANCH  14  49
TORSDOF 5
