REMARK  Name = 
REMARK  5 active torsions:
REMARK  status: ('A' for Active; 'I' for Inactive)
REMARK    1  A    between atoms: C_1  and  C_2
REMARK    2  A    between atoms: C_2  and  C_21
REMARK    3  A    between atoms: C_11  and  C_20
REMARK    4  A    between atoms: C_15  and  C_16
REMARK    5  A    between atoms: C_15  and  C_17
REMARK                            x       y       z     vdW  Elec       q    Type
REMARK                         _______ _______ _______ _____ _____    ______ ____
ROOT
ATOM      1  C   UNL     1       3.392  -0.377  -0.254  0.00  0.00    +0.004 C 
ATOM      2  C   UNL     1       2.511  -1.629  -0.464  0.00  0.00    -0.040 C 
ATOM      3  C   UNL     1       1.414  -1.762   0.599  0.00  0.00    -0.045 C 
ATOM      4  C   UNL     1       0.531  -0.486   0.748  0.00  0.00    -0.014 C 
ATOM      5  C   UNL     1       1.245   0.806   0.363  0.00  0.00    -0.069 C 
ATOM      6  C   UNL     1       2.511   0.848  -0.107  0.00  0.00    -0.075 C 
ATOM      7  C   UNL     1       0.485   2.089   0.573  0.00  0.00    -0.031 C 
ATOM      8  C   UNL     1      -0.872   2.014  -0.123  0.00  0.00    -0.045 C 
ATOM      9  C   UNL     1      -1.676   0.761   0.320  0.00  0.00    -0.019 C 
ATOM     10  C   UNL     1      -0.887  -0.584   0.054  0.00  0.00    -0.022 C 
ATOM     11  C   UNL     1      -1.681  -1.793   0.681  0.00  0.00    -0.047 C 
ATOM     12  C   UNL     1      -3.166  -1.524   0.973  0.00  0.00    -0.052 C 
ATOM     13  C   UNL     1      -3.796  -0.674  -0.126  0.00  0.00    -0.037 C 
ATOM     14  C   UNL     1      -3.190   0.767  -0.171  0.00  0.00    +0.073 C 
ATOM     15  H   UNL     1       2.035  -1.585  -1.466  0.00  0.00    +0.028 HD
ATOM     16  H   UNL     1       3.140  -2.546  -0.448  0.00  0.00    +0.028 HD
ATOM     17  H   UNL     1       0.803  -2.655   0.356  0.00  0.00    +0.027 HD
ATOM     18  H   UNL     1       1.887  -1.994   1.576  0.00  0.00    +0.027 HD
ATOM     19  H   UNL     1       0.338  -0.388   1.840  0.00  0.00    +0.035 HD
ATOM     20  H   UNL     1       2.956   1.818  -0.310  0.00  0.00    +0.058 HD
ATOM     21  H   UNL     1       0.338   2.245   1.664  0.00  0.00    +0.031 HD
ATOM     22  H   UNL     1       1.038   2.970   0.180  0.00  0.00    +0.031 HD
ATOM     23  H   UNL     1      -0.716   2.016  -1.222  0.00  0.00    +0.027 HD
ATOM     24  H   UNL     1      -1.432   2.937   0.136  0.00  0.00    +0.027 HD
ATOM     25  H   UNL     1      -1.719   0.838   1.432  0.00  0.00    +0.032 HD
ATOM     26  H   UNL     1      -1.228  -2.108   1.646  0.00  0.00    +0.027 HD
ATOM     27  H   UNL     1      -1.617  -2.685   0.020  0.00  0.00    +0.027 HD
ATOM     28  H   UNL     1      -3.705  -2.494   1.044  0.00  0.00    +0.027 HD
ATOM     29  H   UNL     1      -3.273  -1.017   1.956  0.00  0.00    +0.027 HD
ATOM     30  H   UNL     1      -4.897  -0.637   0.032  0.00  0.00    +0.028 HD
ATOM     31  H   UNL     1      -3.656  -1.225  -1.078  0.00  0.00    +0.028 HD
ENDROOT
BRANCH   1  32
ATOM     32  C   UNL     1       4.296  -0.221  -1.473  0.00  0.00    -0.081 C 
ATOM     33  C   UNL     1       5.173   0.782  -1.619  0.00  0.00    -0.102 C 
ATOM     34  H   UNL     1       4.245  -0.957  -2.272  0.00  0.00    +0.057 HD
ATOM     35  H   UNL     1       5.791   0.834  -2.509  0.00  0.00    +0.053 HD
ATOM     36  H   UNL     1       5.285   1.553  -0.865  0.00  0.00    +0.053 HD
ENDBRANCH   1  32
BRANCH   1  37
ATOM     37  C   UNL     1       4.263  -0.532   1.013  0.00  0.00    -0.053 C 
ATOM     38  H   UNL     1       3.639  -0.592   1.928  0.00  0.00    +0.024 HD
ATOM     39  H   UNL     1       4.887  -1.449   0.947  0.00  0.00    +0.024 HD
ATOM     40  H   UNL     1       4.939   0.339   1.143  0.00  0.00    +0.024 HD
ENDBRANCH   1  37
BRANCH  14  41
ATOM     41  C   UNL     1      -4.025   1.651   0.796  0.00  0.00    -0.049 C 
ATOM     42  H   UNL     1      -3.623   2.684   0.853  0.00  0.00    +0.024 HD
ATOM     43  H   UNL     1      -5.082   1.718   0.456  0.00  0.00    +0.024 HD
ATOM     44  H   UNL     1      -4.025   1.233   1.825  0.00  0.00    +0.024 HD
ENDBRANCH  14  41
BRANCH  10  45
ATOM     45  C   UNL     1      -0.696  -0.823  -1.470  0.00  0.00    -0.059 C 
ATOM     46  H   UNL     1      -1.652  -0.802  -2.017  0.00  0.00    +0.024 HD
ATOM     47  H   UNL     1      -0.254  -1.821  -1.665  0.00  0.00    +0.024 HD
ATOM     48  H   UNL     1      -0.025  -0.065  -1.923  0.00  0.00    +0.024 HD
ENDBRANCH  10  45
BRANCH  14  49
ATOM     49  C   UNL     1      -3.355   1.359  -1.575  0.00  0.00    +0.362 C 
ATOM     50  O   UNL     1      -3.252   2.602  -1.756  0.00  0.00    -0.246 OA
ATOM     51  O   UNL     1      -3.643   0.557  -2.675  0.00  0.00    -0.246 OA
ENDBRANCH  14  49
TORSDOF 5
