REMARK  Name = 
REMARK  5 active torsions:
REMARK  status: ('A' for Active; 'I' for Inactive)
REMARK    1  A    between atoms: C_1  and  C_2
REMARK    2  A    between atoms: C_2  and  C_21
REMARK    3  A    between atoms: C_11  and  C_20
REMARK    4  A    between atoms: C_15  and  C_16
REMARK    5  A    between atoms: C_15  and  C_17
REMARK                            x       y       z     vdW  Elec       q    Type
REMARK                         _______ _______ _______ _____ _____    ______ ____
ROOT
ATOM      1  C   UNL     1       3.399  -0.272   0.032  0.00  0.00    +0.004 C 
ATOM      2  C   UNL     1       2.771   0.733   1.026  0.00  0.00    -0.040 C 
ATOM      3  C   UNL     1       1.734   1.645   0.364  0.00  0.00    -0.045 C 
ATOM      4  C   UNL     1       0.624   0.872  -0.410  0.00  0.00    -0.014 C 
ATOM      5  C   UNL     1       1.072  -0.489  -0.932  0.00  0.00    -0.069 C 
ATOM      6  C   UNL     1       2.301  -1.006  -0.711  0.00  0.00    -0.075 C 
ATOM      7  C   UNL     1       0.083  -1.252  -1.773  0.00  0.00    -0.031 C 
ATOM      8  C   UNL     1      -1.244  -1.388  -1.027  0.00  0.00    -0.045 C 
ATOM      9  C   UNL     1      -1.787  -0.008  -0.566  0.00  0.00    -0.019 C 
ATOM     10  C   UNL     1      -0.757   0.766   0.352  0.00  0.00    -0.022 C 
ATOM     11  C   UNL     1      -1.296   2.219   0.639  0.00  0.00    -0.047 C 
ATOM     12  C   UNL     1      -2.801   2.421   0.402  0.00  0.00    -0.052 C 
ATOM     13  C   UNL     1      -3.597   1.200   0.854  0.00  0.00    -0.037 C 
ATOM     14  C   UNL     1      -3.279  -0.060  -0.017  0.00  0.00    +0.073 C 
ATOM     15  H   UNL     1       3.566   1.363   1.485  0.00  0.00    +0.028 HD
ATOM     16  H   UNL     1       2.283   0.178   1.856  0.00  0.00    +0.028 HD
ATOM     17  H   UNL     1       1.303   2.303   1.146  0.00  0.00    +0.027 HD
ATOM     18  H   UNL     1       2.255   2.333  -0.335  0.00  0.00    +0.027 HD
ATOM     19  H   UNL     1       0.430   1.476  -1.326  0.00  0.00    +0.035 HD
ATOM     20  H   UNL     1       2.549  -1.963  -1.162  0.00  0.00    +0.058 HD
ATOM     21  H   UNL     1       0.452  -2.269  -2.030  0.00  0.00    +0.031 HD
ATOM     22  H   UNL     1      -0.079  -0.703  -2.726  0.00  0.00    +0.031 HD
ATOM     23  H   UNL     1      -1.967  -1.870  -1.718  0.00  0.00    +0.027 HD
ATOM     24  H   UNL     1      -1.104  -2.069  -0.161  0.00  0.00    +0.027 HD
ATOM     25  H   UNL     1      -1.829   0.600  -1.500  0.00  0.00    +0.032 HD
ATOM     26  H   UNL     1      -0.779   2.968   0.001  0.00  0.00    +0.027 HD
ATOM     27  H   UNL     1      -1.070   2.519   1.686  0.00  0.00    +0.027 HD
ATOM     28  H   UNL     1      -3.144   3.314   0.969  0.00  0.00    +0.027 HD
ATOM     29  H   UNL     1      -2.992   2.623  -0.673  0.00  0.00    +0.027 HD
ATOM     30  H   UNL     1      -3.365   1.044   1.927  0.00  0.00    +0.028 HD
ATOM     31  H   UNL     1      -4.682   1.442   0.820  0.00  0.00    +0.028 HD
ENDROOT
BRANCH   1  32
ATOM     32  C   UNL     1       4.240  -1.266   0.827  0.00  0.00    -0.081 C 
ATOM     33  C   UNL     1       4.907  -2.283   0.265  0.00  0.00    -0.102 C 
ATOM     34  H   UNL     1       4.321  -1.153   1.906  0.00  0.00    +0.057 HD
ATOM     35  H   UNL     1       5.493  -2.954   0.886  0.00  0.00    +0.053 HD
ATOM     36  H   UNL     1       4.878  -2.461  -0.804  0.00  0.00    +0.053 HD
ENDBRANCH   1  32
BRANCH   1  37
ATOM     37  C   UNL     1       4.299   0.463  -0.986  0.00  0.00    -0.053 C 
ATOM     38  H   UNL     1       4.796  -0.255  -1.671  0.00  0.00    +0.024 HD
ATOM     39  H   UNL     1       3.709   1.155  -1.622  0.00  0.00    +0.024 HD
ATOM     40  H   UNL     1       5.087   1.046  -0.461  0.00  0.00    +0.024 HD
ENDBRANCH   1  37
BRANCH  14  41
ATOM     41  C   UNL     1      -4.256  -0.046  -1.225  0.00  0.00    -0.049 C 
ATOM     42  H   UNL     1      -4.163   0.895  -1.808  0.00  0.00    +0.024 HD
ATOM     43  H   UNL     1      -5.310  -0.130  -0.880  0.00  0.00    +0.024 HD
ATOM     44  H   UNL     1      -4.060  -0.891  -1.917  0.00  0.00    +0.024 HD
ENDBRANCH  14  41
BRANCH  10  45
ATOM     45  C   UNL     1      -0.543   0.017   1.698  0.00  0.00    -0.059 C 
ATOM     46  H   UNL     1       0.080   0.616   2.392  0.00  0.00    +0.024 HD
ATOM     47  H   UNL     1      -0.036  -0.958   1.548  0.00  0.00    +0.024 HD
ATOM     48  H   UNL     1      -1.492  -0.170   2.225  0.00  0.00    +0.024 HD
ENDBRANCH  10  45
BRANCH  14  49
ATOM     49  C   UNL     1      -3.572  -1.334   0.782  0.00  0.00    +0.362 C 
ATOM     50  O   UNL     1      -3.712  -2.438   0.190  0.00  0.00    -0.246 OA
ATOM     51  O   UNL     1      -3.715  -1.310   2.166  0.00  0.00    -0.246 OA
ENDBRANCH  14  49
TORSDOF 5
