REMARK  Name = 
REMARK  5 active torsions:
REMARK  status: ('A' for Active; 'I' for Inactive)
REMARK    1  A    between atoms: C_1  and  C_2
REMARK    2  A    between atoms: C_2  and  C_21
REMARK    3  A    between atoms: C_11  and  C_20
REMARK    4  A    between atoms: C_15  and  C_16
REMARK    5  A    between atoms: C_15  and  C_17
REMARK                            x       y       z     vdW  Elec       q    Type
REMARK                         _______ _______ _______ _____ _____    ______ ____
ROOT
ATOM      1  C   UNL     1       3.470  -0.367  -0.219  0.00  0.00    +0.004 C 
ATOM      2  C   UNL     1       2.977   0.799  -1.108  0.00  0.00    -0.040 C 
ATOM      3  C   UNL     1       1.629   1.322  -0.613  0.00  0.00    -0.045 C 
ATOM      4  C   UNL     1       0.544   0.213  -0.673  0.00  0.00    -0.014 C 
ATOM      5  C   UNL     1       1.065  -1.156  -0.231  0.00  0.00    -0.069 C 
ATOM      6  C   UNL     1       2.386  -1.424  -0.115  0.00  0.00    -0.075 C 
ATOM      7  C   UNL     1       0.088  -2.309  -0.215  0.00  0.00    -0.031 C 
ATOM      8  C   UNL     1      -1.232  -1.926   0.457  0.00  0.00    -0.045 C 
ATOM      9  C   UNL     1      -1.809  -0.611  -0.132  0.00  0.00    -0.019 C 
ATOM     10  C   UNL     1      -0.794   0.583   0.078  0.00  0.00    -0.022 C 
ATOM     11  C   UNL     1      -1.388   1.871  -0.561  0.00  0.00    -0.047 C 
ATOM     12  C   UNL     1      -2.797   2.185  -0.061  0.00  0.00    -0.052 C 
ATOM     13  C   UNL     1      -3.754   1.033  -0.373  0.00  0.00    -0.037 C 
ATOM     14  C   UNL     1      -3.318  -0.320   0.259  0.00  0.00    +0.073 C 
ATOM     15  H   UNL     1       2.862   0.455  -2.160  0.00  0.00    +0.028 HD
ATOM     16  H   UNL     1       3.713   1.631  -1.115  0.00  0.00    +0.028 HD
ATOM     17  H   UNL     1       1.762   1.714   0.414  0.00  0.00    +0.027 HD
ATOM     18  H   UNL     1       1.329   2.173  -1.261  0.00  0.00    +0.027 HD
ATOM     19  H   UNL     1       0.302   0.094  -1.754  0.00  0.00    +0.035 HD
ATOM     20  H   UNL     1       2.697  -2.437   0.132  0.00  0.00    +0.058 HD
ATOM     21  H   UNL     1      -0.108  -2.620  -1.264  0.00  0.00    +0.031 HD
ATOM     22  H   UNL     1       0.510  -3.187   0.323  0.00  0.00    +0.031 HD
ATOM     23  H   UNL     1      -1.933  -2.770   0.303  0.00  0.00    +0.027 HD
ATOM     24  H   UNL     1      -1.063  -1.835   1.549  0.00  0.00    +0.027 HD
ATOM     25  H   UNL     1      -1.841  -0.776  -1.235  0.00  0.00    +0.032 HD
ATOM     26  H   UNL     1      -1.423   1.763  -1.668  0.00  0.00    +0.027 HD
ATOM     27  H   UNL     1      -0.745   2.750  -0.340  0.00  0.00    +0.027 HD
ATOM     28  H   UNL     1      -3.162   3.099  -0.577  0.00  0.00    +0.027 HD
ATOM     29  H   UNL     1      -2.784   2.411   1.024  0.00  0.00    +0.027 HD
ATOM     30  H   UNL     1      -3.808   0.929  -1.481  0.00  0.00    +0.028 HD
ATOM     31  H   UNL     1      -4.776   1.312  -0.035  0.00  0.00    +0.028 HD
ENDROOT
BRANCH   1  32
ATOM     32  C   UNL     1       3.809   0.112   1.187  0.00  0.00    -0.081 C 
ATOM     33  C   UNL     1       4.754   1.025   1.441  0.00  0.00    -0.102 C 
ATOM     34  H   UNL     1       3.258  -0.292   2.034  0.00  0.00    +0.057 HD
ATOM     35  H   UNL     1       4.949   1.333   2.463  0.00  0.00    +0.053 HD
ATOM     36  H   UNL     1       5.339   1.473   0.645  0.00  0.00    +0.053 HD
ENDBRANCH   1  32
BRANCH   1  37
ATOM     37  C   UNL     1       4.715  -1.009  -0.865  0.00  0.00    -0.053 C 
ATOM     38  H   UNL     1       5.511  -0.254  -1.034  0.00  0.00    +0.024 HD
ATOM     39  H   UNL     1       5.126  -1.810  -0.212  0.00  0.00    +0.024 HD
ATOM     40  H   UNL     1       4.456  -1.459  -1.848  0.00  0.00    +0.024 HD
ENDBRANCH   1  37
BRANCH  14  41
ATOM     41  C   UNL     1      -4.246  -1.402  -0.353  0.00  0.00    -0.049 C 
ATOM     42  H   UNL     1      -4.105  -2.394   0.123  0.00  0.00    +0.024 HD
ATOM     43  H   UNL     1      -4.069  -1.512  -1.444  0.00  0.00    +0.024 HD
ATOM     44  H   UNL     1      -5.314  -1.126  -0.207  0.00  0.00    +0.024 HD
ENDBRANCH  14  41
BRANCH  10  45
ATOM     45  C   UNL     1      -0.496   0.847   1.586  0.00  0.00    -0.059 C 
ATOM     46  H   UNL     1      -1.410   0.883   2.200  0.00  0.00    +0.024 HD
ATOM     47  H   UNL     1       0.171   0.071   2.016  0.00  0.00    +0.024 HD
ATOM     48  H   UNL     1      -0.002   1.829   1.735  0.00  0.00    +0.024 HD
ENDBRANCH  10  45
BRANCH  14  49
ATOM     49  C   UNL     1      -3.571  -0.327   1.764  0.00  0.00    +0.362 C 
ATOM     50  O   UNL     1      -3.334  -1.359   2.446  0.00  0.00    -0.246 OA
ATOM     51  O   UNL     1      -4.139   0.771   2.402  0.00  0.00    -0.246 OA
ENDBRANCH  14  49
TORSDOF 5
