REMARK  Name = 
REMARK  5 active torsions:
REMARK  status: ('A' for Active; 'I' for Inactive)
REMARK    1  A    between atoms: C_1  and  C_2
REMARK    2  A    between atoms: C_2  and  C_21
REMARK    3  A    between atoms: C_11  and  C_20
REMARK    4  A    between atoms: C_15  and  C_16
REMARK    5  A    between atoms: C_15  and  C_17
REMARK                            x       y       z     vdW  Elec       q    Type
REMARK                         _______ _______ _______ _____ _____    ______ ____
ROOT
ATOM      1  C   UNL     1       3.421  -0.462  -0.499  0.00  0.00    +0.004 C 
ATOM      2  C   UNL     1       3.035   1.020  -0.718  0.00  0.00    -0.040 C 
ATOM      3  C   UNL     1       1.740   1.355   0.021  0.00  0.00    -0.045 C 
ATOM      4  C   UNL     1       0.560   0.495  -0.503  0.00  0.00    -0.014 C 
ATOM      5  C   UNL     1       0.954  -0.958  -0.773  0.00  0.00    -0.069 C 
ATOM      6  C   UNL     1       2.245  -1.354  -0.853  0.00  0.00    -0.075 C 
ATOM      7  C   UNL     1      -0.124  -1.903  -1.252  0.00  0.00    -0.031 C 
ATOM      8  C   UNL     1      -1.405  -1.772  -0.425  0.00  0.00    -0.045 C 
ATOM      9  C   UNL     1      -1.859  -0.293  -0.309  0.00  0.00    -0.019 C 
ATOM     10  C   UNL     1      -0.739   0.576   0.392  0.00  0.00    -0.022 C 
ATOM     11  C   UNL     1      -1.213   2.055   0.457  0.00  0.00    -0.047 C 
ATOM     12  C   UNL     1      -2.586   2.209   1.109  0.00  0.00    -0.052 C 
ATOM     13  C   UNL     1      -3.645   1.423   0.337  0.00  0.00    -0.037 C 
ATOM     14  C   UNL     1      -3.335  -0.100   0.234  0.00  0.00    +0.073 C 
ATOM     15  H   UNL     1       2.889   1.220  -1.803  0.00  0.00    +0.028 HD
ATOM     16  H   UNL     1       3.844   1.696  -0.367  0.00  0.00    +0.028 HD
ATOM     17  H   UNL     1       1.520   2.432  -0.140  0.00  0.00    +0.027 HD
ATOM     18  H   UNL     1       1.909   1.208   1.106  0.00  0.00    +0.027 HD
ATOM     19  H   UNL     1       0.307   0.916  -1.502  0.00  0.00    +0.035 HD
ATOM     20  H   UNL     1       2.462  -2.386  -1.121  0.00  0.00    +0.058 HD
ATOM     21  H   UNL     1       0.216  -2.961  -1.201  0.00  0.00    +0.031 HD
ATOM     22  H   UNL     1      -0.348  -1.673  -2.317  0.00  0.00    +0.031 HD
ATOM     23  H   UNL     1      -2.180  -2.387  -0.925  0.00  0.00    +0.027 HD
ATOM     24  H   UNL     1      -1.231  -2.215   0.577  0.00  0.00    +0.027 HD
ATOM     25  H   UNL     1      -1.904   0.081  -1.359  0.00  0.00    +0.032 HD
ATOM     26  H   UNL     1      -1.260   2.484  -0.569  0.00  0.00    +0.027 HD
ATOM     27  H   UNL     1      -0.491   2.673   1.034  0.00  0.00    +0.027 HD
ATOM     28  H   UNL     1      -2.865   3.285   1.100  0.00  0.00    +0.027 HD
ATOM     29  H   UNL     1      -2.549   1.895   2.172  0.00  0.00    +0.027 HD
ATOM     30  H   UNL     1      -4.636   1.588   0.815  0.00  0.00    +0.028 HD
ATOM     31  H   UNL     1      -3.713   1.862  -0.685  0.00  0.00    +0.028 HD
ENDROOT
BRANCH   1  32
ATOM     32  C   UNL     1       3.803  -0.728   0.952  0.00  0.00    -0.081 C 
ATOM     33  C   UNL     1       4.828  -0.120   1.562  0.00  0.00    -0.102 C 
ATOM     34  H   UNL     1       3.218  -1.436   1.536  0.00  0.00    +0.057 HD
ATOM     35  H   UNL     1       5.451   0.600   1.042  0.00  0.00    +0.053 HD
ATOM     36  H   UNL     1       5.051  -0.344   2.600  0.00  0.00    +0.053 HD
ENDBRANCH   1  32
BRANCH   1  37
ATOM     37  C   UNL     1       4.601  -0.824  -1.423  0.00  0.00    -0.053 C 
ATOM     38  H   UNL     1       4.938  -1.868  -1.239  0.00  0.00    +0.024 HD
ATOM     39  H   UNL     1       4.301  -0.738  -2.490  0.00  0.00    +0.024 HD
ATOM     40  H   UNL     1       5.463  -0.144  -1.254  0.00  0.00    +0.024 HD
ENDBRANCH   1  37
BRANCH  14  41
ATOM     41  C   UNL     1      -4.356  -0.679  -0.779  0.00  0.00    -0.049 C 
ATOM     42  H   UNL     1      -4.190  -0.266  -1.797  0.00  0.00    +0.024 HD
ATOM     43  H   UNL     1      -5.394  -0.424  -0.474  0.00  0.00    +0.024 HD
ATOM     44  H   UNL     1      -4.304  -1.785  -0.843  0.00  0.00    +0.024 HD
ENDBRANCH  14  41
BRANCH  10  45
ATOM     45  C   UNL     1      -0.415   0.073   1.833  0.00  0.00    -0.059 C 
ATOM     46  H   UNL     1       0.184  -0.860   1.819  0.00  0.00    +0.024 HD
ATOM     47  H   UNL     1       0.161   0.829   2.405  0.00  0.00    +0.024 HD
ATOM     48  H   UNL     1      -1.321  -0.118   2.428  0.00  0.00    +0.024 HD
ENDBRANCH  10  45
BRANCH  14  49
ATOM     49  C   UNL     1      -3.590  -0.810   1.561  0.00  0.00    +0.362 C 
ATOM     50  O   UNL     1      -3.951  -0.171   2.585  0.00  0.00    -0.246 OA
ATOM     51  O   UNL     1      -3.498  -2.195   1.644  0.00  0.00    -0.246 OA
ENDBRANCH  14  49
TORSDOF 5
