REMARK  Name = 
REMARK  5 active torsions:
REMARK  status: ('A' for Active; 'I' for Inactive)
REMARK    1  A    between atoms: C_1  and  C_2
REMARK    2  A    between atoms: C_2  and  C_21
REMARK    3  A    between atoms: C_11  and  C_20
REMARK    4  A    between atoms: C_15  and  C_16
REMARK    5  A    between atoms: C_15  and  C_17
REMARK                            x       y       z     vdW  Elec       q    Type
REMARK                         _______ _______ _______ _____ _____    ______ ____
ROOT
ATOM      1  C   UNL     1       3.476  -0.290  -0.265  0.00  0.00    +0.004 C 
ATOM      2  C   UNL     1       3.066   1.185  -0.037  0.00  0.00    -0.040 C 
ATOM      3  C   UNL     1       1.708   1.264   0.657  0.00  0.00    -0.045 C 
ATOM      4  C   UNL     1       0.601   0.628  -0.226  0.00  0.00    -0.014 C 
ATOM      5  C   UNL     1       1.047  -0.682  -0.873  0.00  0.00    -0.069 C 
ATOM      6  C   UNL     1       2.350  -1.036  -0.961  0.00  0.00    -0.075 C 
ATOM      7  C   UNL     1       0.041  -1.422  -1.720  0.00  0.00    -0.031 C 
ATOM      8  C   UNL     1      -1.302  -1.555  -1.006  0.00  0.00    -0.045 C 
ATOM      9  C   UNL     1      -1.819  -0.192  -0.478  0.00  0.00    -0.019 C 
ATOM     10  C   UNL     1      -0.789   0.479   0.513  0.00  0.00    -0.022 C 
ATOM     11  C   UNL     1      -1.296   1.914   0.920  0.00  0.00    -0.047 C 
ATOM     12  C   UNL     1      -2.800   2.164   0.724  0.00  0.00    -0.052 C 
ATOM     13  C   UNL     1      -3.617   0.917   1.040  0.00  0.00    -0.037 C 
ATOM     14  C   UNL     1      -3.326  -0.244   0.033  0.00  0.00    +0.073 C 
ATOM     15  H   UNL     1       3.825   1.716   0.577  0.00  0.00    +0.028 HD
ATOM     16  H   UNL     1       3.002   1.719  -1.011  0.00  0.00    +0.028 HD
ATOM     17  H   UNL     1       1.793   0.759   1.639  0.00  0.00    +0.027 HD
ATOM     18  H   UNL     1       1.475   2.332   0.852  0.00  0.00    +0.027 HD
ATOM     19  H   UNL     1       0.451   1.328  -1.079  0.00  0.00    +0.035 HD
ATOM     20  H   UNL     1       2.614  -1.939  -1.507  0.00  0.00    +0.058 HD
ATOM     21  H   UNL     1       0.401  -2.443  -1.975  0.00  0.00    +0.031 HD
ATOM     22  H   UNL     1      -0.099  -0.865  -2.671  0.00  0.00    +0.031 HD
ATOM     23  H   UNL     1      -2.024  -1.975  -1.737  0.00  0.00    +0.027 HD
ATOM     24  H   UNL     1      -1.202  -2.288  -0.177  0.00  0.00    +0.027 HD
ATOM     25  H   UNL     1      -1.818   0.479  -1.369  0.00  0.00    +0.032 HD
ATOM     26  H   UNL     1      -1.038   2.134   1.979  0.00  0.00    +0.027 HD
ATOM     27  H   UNL     1      -0.782   2.700   0.326  0.00  0.00    +0.027 HD
ATOM     28  H   UNL     1      -3.122   2.993   1.391  0.00  0.00    +0.027 HD
ATOM     29  H   UNL     1      -2.994   2.491  -0.320  0.00  0.00    +0.027 HD
ATOM     30  H   UNL     1      -3.387   0.635   2.088  0.00  0.00    +0.028 HD
ATOM     31  H   UNL     1      -4.698   1.181   1.035  0.00  0.00    +0.028 HD
ENDROOT
BRANCH   1  32
ATOM     32  C   UNL     1       3.770  -0.994   1.055  0.00  0.00    -0.081 C 
ATOM     33  C   UNL     1       4.739  -0.604   1.892  0.00  0.00    -0.102 C 
ATOM     34  H   UNL     1       3.166  -1.850   1.347  0.00  0.00    +0.057 HD
ATOM     35  H   UNL     1       4.899  -1.140   2.821  0.00  0.00    +0.053 HD
ATOM     36  H   UNL     1       5.377   0.244   1.665  0.00  0.00    +0.053 HD
ENDBRANCH   1  32
BRANCH   1  37
ATOM     37  C   UNL     1       4.723  -0.339  -1.170  0.00  0.00    -0.053 C 
ATOM     38  H   UNL     1       5.553   0.260  -0.740  0.00  0.00    +0.024 HD
ATOM     39  H   UNL     1       4.491   0.073  -2.177  0.00  0.00    +0.024 HD
ATOM     40  H   UNL     1       5.076  -1.386  -1.296  0.00  0.00    +0.024 HD
ENDBRANCH   1  37
BRANCH  14  41
ATOM     41  C   UNL     1      -4.269  -0.053  -1.186  0.00  0.00    -0.049 C 
ATOM     42  H   UNL     1      -4.130   0.945  -1.653  0.00  0.00    +0.024 HD
ATOM     43  H   UNL     1      -5.335  -0.139  -0.879  0.00  0.00    +0.024 HD
ATOM     44  H   UNL     1      -4.077  -0.817  -1.968  0.00  0.00    +0.024 HD
ENDBRANCH  14  41
BRANCH  10  45
ATOM     45  C   UNL     1      -0.610  -0.398   1.790  0.00  0.00    -0.059 C 
ATOM     46  H   UNL     1      -0.022  -1.314   1.575  0.00  0.00    +0.024 HD
ATOM     47  H   UNL     1      -0.086   0.151   2.598  0.00  0.00    +0.024 HD
ATOM     48  H   UNL     1      -1.573  -0.710   2.221  0.00  0.00    +0.024 HD
ENDBRANCH  10  45
BRANCH  14  49
ATOM     49  C   UNL     1      -3.695  -1.590   0.666  0.00  0.00    +0.362 C 
ATOM     50  O   UNL     1      -3.793  -1.728   1.915  0.00  0.00    -0.246 OA
ATOM     51  O   UNL     1      -3.942  -2.698  -0.139  0.00  0.00    -0.246 OA
ENDBRANCH  14  49
TORSDOF 5
