REMARK  Name = 
REMARK  5 active torsions:
REMARK  status: ('A' for Active; 'I' for Inactive)
REMARK    1  A    between atoms: C_1  and  C_2
REMARK    2  A    between atoms: C_2  and  C_21
REMARK    3  A    between atoms: C_11  and  C_20
REMARK    4  A    between atoms: C_15  and  C_16
REMARK    5  A    between atoms: C_15  and  C_17
REMARK                            x       y       z     vdW  Elec       q    Type
REMARK                         _______ _______ _______ _____ _____    ______ ____
ROOT
ATOM      1  C   UNL     1       3.481  -0.026   0.040  0.00  0.00    +0.004 C 
ATOM      2  C   UNL     1       2.746  -1.252  -0.546  0.00  0.00    -0.040 C 
ATOM      3  C   UNL     1       1.627  -1.751   0.374  0.00  0.00    -0.045 C 
ATOM      4  C   UNL     1       0.600  -0.647   0.775  0.00  0.00    -0.014 C 
ATOM      5  C   UNL     1       1.215   0.752   0.840  0.00  0.00    -0.069 C 
ATOM      6  C   UNL     1       2.491   1.024   0.493  0.00  0.00    -0.075 C 
ATOM      7  C   UNL     1       0.329   1.867   1.330  0.00  0.00    -0.031 C 
ATOM      8  C   UNL     1      -0.967   1.898   0.523  0.00  0.00    -0.045 C 
ATOM      9  C   UNL     1      -1.676   0.517   0.556  0.00  0.00    -0.019 C 
ATOM     10  C   UNL     1      -0.755  -0.627  -0.048  0.00  0.00    -0.022 C 
ATOM     11  C   UNL     1      -1.496  -1.989   0.128  0.00  0.00    -0.047 C 
ATOM     12  C   UNL     1      -2.920  -1.980  -0.433  0.00  0.00    -0.052 C 
ATOM     13  C   UNL     1      -3.770  -0.895   0.227  0.00  0.00    -0.037 C 
ATOM     14  C   UNL     1      -3.179   0.533   0.058  0.00  0.00    +0.073 C 
ATOM     15  H   UNL     1       2.311  -1.002  -1.534  0.00  0.00    +0.028 HD
ATOM     16  H   UNL     1       3.468  -2.080  -0.721  0.00  0.00    +0.028 HD
ATOM     17  H   UNL     1       1.147  -2.617  -0.115  0.00  0.00    +0.027 HD
ATOM     18  H   UNL     1       2.087  -2.166   1.297  0.00  0.00    +0.027 HD
ATOM     19  H   UNL     1       0.320  -0.886   1.826  0.00  0.00    +0.035 HD
ATOM     20  H   UNL     1       2.865   2.040   0.605  0.00  0.00    +0.058 HD
ATOM     21  H   UNL     1       0.825   2.860   1.247  0.00  0.00    +0.031 HD
ATOM     22  H   UNL     1       0.099   1.699   2.405  0.00  0.00    +0.031 HD
ATOM     23  H   UNL     1      -0.734   2.206  -0.517  0.00  0.00    +0.027 HD
ATOM     24  H   UNL     1      -1.607   2.685   0.968  0.00  0.00    +0.027 HD
ATOM     25  H   UNL     1      -1.759   0.272   1.642  0.00  0.00    +0.032 HD
ATOM     26  H   UNL     1      -0.962  -2.812  -0.387  0.00  0.00    +0.027 HD
ATOM     27  H   UNL     1      -1.545  -2.256   1.207  0.00  0.00    +0.027 HD
ATOM     28  H   UNL     1      -2.904  -1.855  -1.535  0.00  0.00    +0.027 HD
ATOM     29  H   UNL     1      -3.388  -2.968  -0.230  0.00  0.00    +0.027 HD
ATOM     30  H   UNL     1      -4.802  -0.945  -0.185  0.00  0.00    +0.028 HD
ATOM     31  H   UNL     1      -3.853  -1.141   1.311  0.00  0.00    +0.028 HD
ENDROOT
BRANCH   1  32
ATOM     32  C   UNL     1       4.396   0.561  -1.026  0.00  0.00    -0.081 C 
ATOM     33  C   UNL     1       3.932   1.152  -2.135  0.00  0.00    -0.102 C 
ATOM     34  H   UNL     1       5.475   0.506  -0.896  0.00  0.00    +0.057 HD
ATOM     35  H   UNL     1       2.866   1.243  -2.320  0.00  0.00    +0.053 HD
ATOM     36  H   UNL     1       4.625   1.554  -2.867  0.00  0.00    +0.053 HD
ENDBRANCH   1  32
BRANCH   1  37
ATOM     37  C   UNL     1       4.341  -0.434   1.255  0.00  0.00    -0.053 C 
ATOM     38  H   UNL     1       3.711  -0.771   2.105  0.00  0.00    +0.024 HD
ATOM     39  H   UNL     1       5.040  -1.255   0.985  0.00  0.00    +0.024 HD
ATOM     40  H   UNL     1       4.943   0.431   1.612  0.00  0.00    +0.024 HD
ENDBRANCH   1  37
BRANCH  14  41
ATOM     41  C   UNL     1      -4.037   1.466   0.951  0.00  0.00    -0.049 C 
ATOM     42  H   UNL     1      -5.118   1.341   0.721  0.00  0.00    +0.024 HD
ATOM     43  H   UNL     1      -3.801   2.537   0.784  0.00  0.00    +0.024 HD
ATOM     44  H   UNL     1      -3.889   1.237   2.028  0.00  0.00    +0.024 HD
ENDBRANCH  14  41
BRANCH  10  45
ATOM     45  C   UNL     1      -0.436  -0.407  -1.552  0.00  0.00    -0.059 C 
ATOM     46  H   UNL     1      -1.340  -0.278  -2.168  0.00  0.00    +0.024 HD
ATOM     47  H   UNL     1       0.215   0.477  -1.710  0.00  0.00    +0.024 HD
ATOM     48  H   UNL     1       0.085  -1.292  -1.971  0.00  0.00    +0.024 HD
ENDBRANCH  10  45
BRANCH  14  49
ATOM     49  C   UNL     1      -3.342   1.028  -1.375  0.00  0.00    +0.362 C 
ATOM     50  O   UNL     1      -2.889   2.151  -1.718  0.00  0.00    -0.246 OA
ATOM     51  O   UNL     1      -4.069   0.296  -2.308  0.00  0.00    -0.246 OA
ENDBRANCH  14  49
TORSDOF 5
