REMARK  Name = 
REMARK  9 active torsions:
REMARK  status: ('A' for Active; 'I' for Inactive)
REMARK    1  A    between atoms: C_1  and  C_2
REMARK    2  A    between atoms: C_4  and  C_38
REMARK    3  A    between atoms: C_6  and  N_8
REMARK    4  A    between atoms: C_9  and  N_37
REMARK    5  A    between atoms: C_10  and  C_21
REMARK    6  A    between atoms: N_23  and  C_24
REMARK    7  A    between atoms: C_25  and  C_33
REMARK    8  A    between atoms: C_33  and  O_35
REMARK    9  A    between atoms: O_35  and  C_36
REMARK                            x       y       z     vdW  Elec       q    Type
REMARK                         _______ _______ _______ _____ _____    ______ ____
ROOT
ATOM      1  N   UNL     1      -3.014  -0.597  -0.540  0.00  0.00    -0.280 N 
ATOM      2  C   UNL     1      -1.935  -0.996  -1.271  0.00  0.00    +0.117 A 
ATOM      3  C   UNL     1      -0.751  -0.424  -0.778  0.00  0.00    +0.104 A 
ATOM      4  C   UNL     1      -1.165   0.350   0.288  0.00  0.00    +0.123 A 
ATOM      5  C   UNL     1      -2.518   0.228   0.401  0.00  0.00    +0.166 A 
ATOM      6  N   UNL     1      -3.215   0.881   1.364  0.00  0.00    -0.225 NA
ATOM      7  C   UNL     1      -2.530   1.694   2.223  0.00  0.00    +0.092 A 
ATOM      8  C   UNL     1      -3.206   2.390   3.230  0.00  0.00    -0.034 A 
ATOM      9  C   UNL     1      -2.495   3.223   4.101  0.00  0.00    -0.060 A 
ATOM     10  C   UNL     1      -1.109   3.366   3.970  0.00  0.00    -0.060 A 
ATOM     11  C   UNL     1      -0.419   2.676   2.967  0.00  0.00    -0.034 A 
ATOM     12  C   UNL     1      -1.115   1.839   2.090  0.00  0.00    +0.090 A 
ATOM     13  N   UNL     1      -0.451   1.159   1.109  0.00  0.00    -0.241 NA
ATOM     14  H   UNL     1      -4.279   2.288   3.340  0.00  0.00    +0.064 HD
ATOM     15  H   UNL     1      -3.021   3.761   4.880  0.00  0.00    +0.062 HD
ATOM     16  H   UNL     1      -0.568   4.013   4.648  0.00  0.00    +0.062 HD
ATOM     17  H   UNL     1       0.654   2.793   2.876  0.00  0.00    +0.064 HD
ENDROOT
BRANCH   1  22
ATOM     18  C   UNL     1      -6.080  -2.724  -0.921  0.00  0.00    -0.048 A 
ATOM     19  C   UNL     1      -7.080  -1.741  -0.949  0.00  0.00    -0.056 A 
ATOM     20  C   UNL     1      -6.742  -0.381  -0.879  0.00  0.00    -0.048 A 
ATOM     21  C   UNL     1      -5.397  -0.009  -0.741  0.00  0.00    -0.035 A 
ATOM     22  C   UNL     1      -4.389  -0.985  -0.702  0.00  0.00    +0.050 A 
ATOM     23  C   UNL     1      -4.738  -2.341  -0.781  0.00  0.00    -0.035 A 
ATOM     24  H   UNL     1      -8.121  -2.034  -1.022  0.00  0.00    +0.062 HD
ATOM     25  H   UNL     1      -5.132   1.038  -0.670  0.00  0.00    +0.064 HD
ATOM     26  H   UNL     1      -3.965  -3.098  -0.715  0.00  0.00    +0.064 HD
BRANCH  18  27
ATOM     27  C   UNL     1      -6.449  -4.178  -0.957  0.00  0.00    -0.040 C 
ATOM     28  H   UNL     1      -5.640  -4.775  -1.428  0.00  0.00    +0.028 HD
ATOM     29  H   UNL     1      -6.614  -4.543   0.078  0.00  0.00    +0.028 HD
ATOM     30  H   UNL     1      -7.377  -4.332  -1.548  0.00  0.00    +0.028 HD
ENDBRANCH  18  27
BRANCH  20  31
ATOM     31  C   UNL     1      -7.817   0.665  -0.876  0.00  0.00    -0.040 C 
ATOM     32  H   UNL     1      -8.138   0.860   0.169  0.00  0.00    +0.028 HD
ATOM     33  H   UNL     1      -7.445   1.611  -1.324  0.00  0.00    +0.028 HD
ATOM     34  H   UNL     1      -8.695   0.328  -1.467  0.00  0.00    +0.028 HD
ENDBRANCH  20  31
ENDBRANCH   1  22
BRANCH   3  35
ATOM     35  C   UNL     1       0.620  -0.543  -1.316  0.00  0.00    +0.254 C 
ATOM     36  O   UNL     1       0.784  -0.770  -2.544  0.00  0.00    -0.270 OA
ATOM     37  N   UNL     1       1.756  -0.370  -0.453  0.00  0.00    -0.275 N 
ATOM     38  H   UNL     1       1.588  -0.271   0.572  0.00  0.00    +0.156 HD
BRANCH  37  39
ATOM     39  C   UNL     1       3.119  -0.354  -0.909  0.00  0.00    +0.087 A 
ATOM     40  C   UNL     1       4.192   0.244  -0.234  0.00  0.00    +0.091 A 
ATOM     41  C   UNL     1       5.431  -0.012  -0.865  0.00  0.00    -0.021 A 
ATOM     42  C   UNL     1       5.318  -0.841  -1.978  0.00  0.00    -0.004 A 
ATOM     43  S   UNL     1       3.704  -1.216  -2.236  0.00  0.00    -0.077 S 
ATOM     44  C   UNL     1       6.455  -1.218  -2.878  0.00  0.00    -0.021 C 
ATOM     45  C   UNL     1       7.803  -1.001  -2.174  0.00  0.00    -0.048 C 
ATOM     46  C   UNL     1       7.850   0.372  -1.486  0.00  0.00    -0.049 C 
ATOM     47  C   UNL     1       6.774   0.488  -0.391  0.00  0.00    -0.026 C 
ATOM     48  H   UNL     1       6.409  -0.589  -3.793  0.00  0.00    +0.032 HD
ATOM     49  H   UNL     1       6.359  -2.284  -3.178  0.00  0.00    +0.032 HD
ATOM     50  H   UNL     1       7.962  -1.801  -1.417  0.00  0.00    +0.027 HD
ATOM     51  H   UNL     1       8.622  -1.069  -2.922  0.00  0.00    +0.027 HD
ATOM     52  H   UNL     1       7.695   1.171  -2.245  0.00  0.00    +0.027 HD
ATOM     53  H   UNL     1       8.852   0.523  -1.032  0.00  0.00    +0.027 HD
ATOM     54  H   UNL     1       7.085  -0.111   0.491  0.00  0.00    +0.031 HD
ATOM     55  H   UNL     1       6.696   1.554  -0.087  0.00  0.00    +0.031 HD
BRANCH  40  56
ATOM     56  C   UNL     1       4.038   1.075   0.980  0.00  0.00    +0.342 C 
ATOM     57  O   UNL     1       2.970   1.719   1.173  0.00  0.00    -0.245 OA
BRANCH  56  58
ATOM     58  O   UNL     1       5.078   1.152   1.911  0.00  0.00    -0.464 OA
BRANCH  58  59
ATOM     59  C   UNL     1       4.995   1.941   3.092  0.00  0.00    +0.082 C 
ATOM     60  H   UNL     1       4.850   3.009   2.826  0.00  0.00    +0.066 HD
ATOM     61  H   UNL     1       5.938   1.838   3.666  0.00  0.00    +0.066 HD
ATOM     62  H   UNL     1       4.149   1.593   3.723  0.00  0.00    +0.066 HD
ENDBRANCH  58  59
ENDBRANCH  56  58
ENDBRANCH  40  56
ENDBRANCH  37  39
ENDBRANCH   3  35
BRANCH   2  63
ATOM     63  N   UNL     1      -2.022  -1.861  -2.409  0.00  0.00    -0.343 N 
ATOM     64  H   UNL     1      -2.946  -2.107  -2.825  0.00  0.00    +0.144 HD
ATOM     65  H   UNL     1      -1.168  -2.265  -2.849  0.00  0.00    +0.144 HD
ENDBRANCH   2  63
TORSDOF 9
