REMARK  Name = 
REMARK  9 active torsions:
REMARK  status: ('A' for Active; 'I' for Inactive)
REMARK    1  A    between atoms: C_1  and  C_2
REMARK    2  A    between atoms: C_4  and  C_38
REMARK    3  A    between atoms: C_6  and  N_8
REMARK    4  A    between atoms: C_9  and  N_37
REMARK    5  A    between atoms: C_10  and  C_21
REMARK    6  A    between atoms: N_23  and  C_24
REMARK    7  A    between atoms: C_25  and  C_33
REMARK    8  A    between atoms: C_33  and  O_35
REMARK    9  A    between atoms: O_35  and  C_36
REMARK                            x       y       z     vdW  Elec       q    Type
REMARK                         _______ _______ _______ _____ _____    ______ ____
ROOT
ATOM      1  N   UNL     1       2.829   0.849  -0.304  0.00  0.00    -0.280 N 
ATOM      2  C   UNL     1       1.686   1.560  -0.511  0.00  0.00    +0.117 A 
ATOM      3  C   UNL     1       0.553   0.820  -0.132  0.00  0.00    +0.104 A 
ATOM      4  C   UNL     1       1.068  -0.379   0.322  0.00  0.00    +0.123 A 
ATOM      5  C   UNL     1       2.425  -0.328   0.209  0.00  0.00    +0.166 A 
ATOM      6  N   UNL     1       3.211  -1.370   0.579  0.00  0.00    -0.225 NA
ATOM      7  C   UNL     1       2.612  -2.485   1.093  0.00  0.00    +0.092 A 
ATOM      8  C   UNL     1       3.381  -3.583   1.491  0.00  0.00    -0.034 A 
ATOM      9  C   UNL     1       2.757  -4.718   2.020  0.00  0.00    -0.060 A 
ATOM     10  C   UNL     1       1.364  -4.762   2.155  0.00  0.00    -0.060 A 
ATOM     11  C   UNL     1       0.581  -3.671   1.761  0.00  0.00    -0.034 A 
ATOM     12  C   UNL     1       1.190  -2.530   1.230  0.00  0.00    +0.090 A 
ATOM     13  N   UNL     1       0.435  -1.460   0.839  0.00  0.00    -0.241 NA
ATOM     14  H   UNL     1       4.459  -3.559   1.393  0.00  0.00    +0.064 HD
ATOM     15  H   UNL     1       3.354  -5.567   2.328  0.00  0.00    +0.062 HD
ATOM     16  H   UNL     1       0.890  -5.644   2.565  0.00  0.00    +0.062 HD
ATOM     17  H   UNL     1      -0.496  -3.716   1.868  0.00  0.00    +0.064 HD
ENDROOT
BRANCH   1  22
ATOM     18  C   UNL     1       5.848   2.070  -2.164  0.00  0.00    -0.048 A 
ATOM     19  C   UNL     1       6.833   1.955  -1.172  0.00  0.00    -0.056 A 
ATOM     20  C   UNL     1       6.503   1.476   0.105  0.00  0.00    -0.048 A 
ATOM     21  C   UNL     1       5.181   1.099   0.381  0.00  0.00    -0.035 A 
ATOM     22  C   UNL     1       4.182   1.237  -0.595  0.00  0.00    +0.050 A 
ATOM     23  C   UNL     1       4.522   1.724  -1.866  0.00  0.00    -0.035 A 
ATOM     24  H   UNL     1       7.857   2.234  -1.394  0.00  0.00    +0.062 HD
ATOM     25  H   UNL     1       4.923   0.714   1.360  0.00  0.00    +0.064 HD
ATOM     26  H   UNL     1       3.757   1.815  -2.627  0.00  0.00    +0.064 HD
BRANCH  18  27
ATOM     27  C   UNL     1       6.198   2.620  -3.515  0.00  0.00    -0.040 C 
ATOM     28  H   UNL     1       7.247   2.371  -3.781  0.00  0.00    +0.028 HD
ATOM     29  H   UNL     1       5.536   2.191  -4.297  0.00  0.00    +0.028 HD
ATOM     30  H   UNL     1       6.079   3.724  -3.506  0.00  0.00    +0.028 HD
ENDBRANCH  18  27
BRANCH  20  31
ATOM     31  C   UNL     1       7.569   1.305   1.146  0.00  0.00    -0.040 C 
ATOM     32  H   UNL     1       8.373   2.060   1.012  0.00  0.00    +0.028 HD
ATOM     33  H   UNL     1       7.146   1.432   2.165  0.00  0.00    +0.028 HD
ATOM     34  H   UNL     1       8.008   0.289   1.060  0.00  0.00    +0.028 HD
ENDBRANCH  20  31
ENDBRANCH   1  22
BRANCH   3  35
ATOM     35  C   UNL     1      -0.866   1.234  -0.136  0.00  0.00    +0.254 C 
ATOM     36  O   UNL     1      -1.158   2.459  -0.114  0.00  0.00    -0.270 OA
ATOM     37  N   UNL     1      -1.909   0.248  -0.182  0.00  0.00    -0.275 N 
ATOM     38  H   UNL     1      -1.659  -0.720  -0.480  0.00  0.00    +0.156 HD
BRANCH  37  39
ATOM     39  C   UNL     1      -3.275   0.527   0.163  0.00  0.00    +0.087 A 
ATOM     40  C   UNL     1      -4.382  -0.257  -0.192  0.00  0.00    +0.091 A 
ATOM     41  C   UNL     1      -5.578   0.204   0.408  0.00  0.00    -0.021 A 
ATOM     42  C   UNL     1      -5.383   1.292   1.255  0.00  0.00    -0.004 A 
ATOM     43  S   UNL     1      -3.766   1.736   1.232  0.00  0.00    -0.077 S 
ATOM     44  C   UNL     1      -6.479   2.026   1.965  0.00  0.00    -0.021 C 
ATOM     45  C   UNL     1      -7.748   1.165   2.047  0.00  0.00    -0.048 C 
ATOM     46  C   UNL     1      -8.068   0.524   0.687  0.00  0.00    -0.049 C 
ATOM     47  C   UNL     1      -6.941  -0.421   0.233  0.00  0.00    -0.026 C 
ATOM     48  H   UNL     1      -6.147   2.297   2.989  0.00  0.00    +0.032 HD
ATOM     49  H   UNL     1      -6.701   2.960   1.406  0.00  0.00    +0.032 HD
ATOM     50  H   UNL     1      -8.602   1.799   2.368  0.00  0.00    +0.027 HD
ATOM     51  H   UNL     1      -7.609   0.366   2.809  0.00  0.00    +0.027 HD
ATOM     52  H   UNL     1      -8.212   1.323  -0.073  0.00  0.00    +0.027 HD
ATOM     53  H   UNL     1      -9.017  -0.049   0.763  0.00  0.00    +0.027 HD
ATOM     54  H   UNL     1      -7.106  -0.678  -0.835  0.00  0.00    +0.031 HD
ATOM     55  H   UNL     1      -6.983  -1.355   0.833  0.00  0.00    +0.031 HD
BRANCH  40  56
ATOM     56  C   UNL     1      -4.308  -1.412  -1.112  0.00  0.00    +0.342 C 
ATOM     57  O   UNL     1      -5.116  -2.373  -0.988  0.00  0.00    -0.245 OA
BRANCH  56  58
ATOM     58  O   UNL     1      -3.346  -1.433  -2.126  0.00  0.00    -0.464 OA
BRANCH  58  59
ATOM     59  C   UNL     1      -3.207  -2.522  -3.031  0.00  0.00    +0.082 C 
ATOM     60  H   UNL     1      -2.378  -2.305  -3.737  0.00  0.00    +0.066 HD
ATOM     61  H   UNL     1      -2.970  -3.452  -2.473  0.00  0.00    +0.066 HD
ATOM     62  H   UNL     1      -4.146  -2.658  -3.609  0.00  0.00    +0.066 HD
ENDBRANCH  58  59
ENDBRANCH  56  58
ENDBRANCH  40  56
ENDBRANCH  37  39
ENDBRANCH   3  35
BRANCH   2  63
ATOM     63  N   UNL     1       1.667   2.899  -1.021  0.00  0.00    -0.343 N 
ATOM     64  H   UNL     1       0.779   3.353  -1.323  0.00  0.00    +0.144 HD
ATOM     65  H   UNL     1       2.547   3.451  -1.108  0.00  0.00    +0.144 HD
ENDBRANCH   2  63
TORSDOF 9
