REMARK  Name = 
REMARK  9 active torsions:
REMARK  status: ('A' for Active; 'I' for Inactive)
REMARK    1  A    between atoms: C_1  and  C_2
REMARK    2  A    between atoms: C_4  and  C_38
REMARK    3  A    between atoms: C_6  and  N_8
REMARK    4  A    between atoms: C_9  and  N_37
REMARK    5  A    between atoms: C_10  and  C_21
REMARK    6  A    between atoms: N_23  and  C_24
REMARK    7  A    between atoms: C_25  and  C_33
REMARK    8  A    between atoms: C_33  and  O_35
REMARK    9  A    between atoms: O_35  and  C_36
REMARK                            x       y       z     vdW  Elec       q    Type
REMARK                         _______ _______ _______ _____ _____    ______ ____
ROOT
ATOM      1  N   UNL     1       2.895  -0.175  -0.587  0.00  0.00    -0.280 N 
ATOM      2  C   UNL     1       1.838  -0.679  -1.285  0.00  0.00    +0.117 A 
ATOM      3  C   UNL     1       0.634  -0.485  -0.587  0.00  0.00    +0.104 A 
ATOM      4  C   UNL     1       1.013   0.166   0.571  0.00  0.00    +0.123 A 
ATOM      5  C   UNL     1       2.365   0.337   0.539  0.00  0.00    +0.166 A 
ATOM      6  N   UNL     1       3.036   0.906   1.571  0.00  0.00    -0.225 NA
ATOM      7  C   UNL     1       2.322   1.327   2.658  0.00  0.00    +0.092 A 
ATOM      8  C   UNL     1       2.969   1.929   3.741  0.00  0.00    -0.034 A 
ATOM      9  C   UNL     1       2.228   2.351   4.850  0.00  0.00    -0.060 A 
ATOM     10  C   UNL     1       0.840   2.173   4.883  0.00  0.00    -0.060 A 
ATOM     11  C   UNL     1       0.178   1.571   3.808  0.00  0.00    -0.034 A 
ATOM     12  C   UNL     1       0.905   1.145   2.692  0.00  0.00    +0.090 A 
ATOM     13  N   UNL     1       0.270   0.552   1.637  0.00  0.00    -0.241 NA
ATOM     14  H   UNL     1       4.043   2.070   3.726  0.00  0.00    +0.064 HD
ATOM     15  H   UNL     1       2.731   2.817   5.687  0.00  0.00    +0.062 HD
ATOM     16  H   UNL     1       0.276   2.503   5.746  0.00  0.00    +0.062 HD
ATOM     17  H   UNL     1      -0.896   1.437   3.844  0.00  0.00    +0.064 HD
ENDROOT
BRANCH   1  22
ATOM     18  C   UNL     1       6.423   0.943  -1.187  0.00  0.00    -0.048 A 
ATOM     19  C   UNL     1       7.024  -0.268  -1.563  0.00  0.00    -0.056 A 
ATOM     20  C   UNL     1       6.260  -1.441  -1.655  0.00  0.00    -0.048 A 
ATOM     21  C   UNL     1       4.897  -1.406  -1.326  0.00  0.00    -0.035 A 
ATOM     22  C   UNL     1       4.288  -0.203  -0.941  0.00  0.00    +0.050 A 
ATOM     23  C   UNL     1       5.059   0.967  -0.862  0.00  0.00    -0.035 A 
ATOM     24  H   UNL     1       8.085  -0.298  -1.783  0.00  0.00    +0.062 HD
ATOM     25  H   UNL     1       4.312  -2.318  -1.353  0.00  0.00    +0.064 HD
ATOM     26  H   UNL     1       4.594   1.895  -0.554  0.00  0.00    +0.064 HD
BRANCH  18  27
ATOM     27  C   UNL     1       7.251   2.187  -1.058  0.00  0.00    -0.040 C 
ATOM     28  H   UNL     1       7.655   2.256  -0.026  0.00  0.00    +0.028 HD
ATOM     29  H   UNL     1       6.637   3.089  -1.267  0.00  0.00    +0.028 HD
ATOM     30  H   UNL     1       8.096   2.173  -1.778  0.00  0.00    +0.028 HD
ENDBRANCH  18  27
BRANCH  20  31
ATOM     31  C   UNL     1       6.914  -2.741  -2.020  0.00  0.00    -0.040 C 
ATOM     32  H   UNL     1       6.193  -3.412  -2.534  0.00  0.00    +0.028 HD
ATOM     33  H   UNL     1       7.771  -2.569  -2.707  0.00  0.00    +0.028 HD
ATOM     34  H   UNL     1       7.282  -3.241  -1.100  0.00  0.00    +0.028 HD
ENDBRANCH  20  31
ENDBRANCH   1  22
BRANCH   3  35
ATOM     35  C   UNL     1      -0.731  -0.904  -0.965  0.00  0.00    +0.254 C 
ATOM     36  O   UNL     1      -0.888  -1.863  -1.768  0.00  0.00    -0.270 OA
ATOM     37  N   UNL     1      -1.875  -0.217  -0.434  0.00  0.00    -0.275 N 
ATOM     38  H   UNL     1      -1.729   0.722  -0.004  0.00  0.00    +0.156 HD
BRANCH  37  39
ATOM     39  C   UNL     1      -3.205  -0.759  -0.461  0.00  0.00    +0.087 A 
ATOM     40  C   UNL     1      -4.388  -0.024  -0.301  0.00  0.00    +0.091 A 
ATOM     41  C   UNL     1      -5.531  -0.855  -0.242  0.00  0.00    -0.021 A 
ATOM     42  C   UNL     1      -5.225  -2.213  -0.299  0.00  0.00    -0.004 A 
ATOM     43  S   UNL     1      -3.570  -2.406  -0.484  0.00  0.00    -0.077 S 
ATOM     44  C   UNL     1      -6.240  -3.314  -0.329  0.00  0.00    -0.021 C 
ATOM     45  C   UNL     1      -7.596  -2.821   0.199  0.00  0.00    -0.048 C 
ATOM     46  C   UNL     1      -7.974  -1.471  -0.431  0.00  0.00    -0.049 C 
ATOM     47  C   UNL     1      -6.953  -0.377  -0.070  0.00  0.00    -0.026 C 
ATOM     48  H   UNL     1      -6.356  -3.664  -1.377  0.00  0.00    +0.032 HD
ATOM     49  H   UNL     1      -5.888  -4.166   0.291  0.00  0.00    +0.032 HD
ATOM     50  H   UNL     1      -7.549  -2.713   1.305  0.00  0.00    +0.027 HD
ATOM     51  H   UNL     1      -8.378  -3.573  -0.040  0.00  0.00    +0.027 HD
ATOM     52  H   UNL     1      -8.025  -1.581  -1.537  0.00  0.00    +0.027 HD
ATOM     53  H   UNL     1      -8.980  -1.165  -0.072  0.00  0.00    +0.027 HD
ATOM     54  H   UNL     1      -7.137   0.505  -0.719  0.00  0.00    +0.031 HD
ATOM     55  H   UNL     1      -7.100  -0.075   0.990  0.00  0.00    +0.031 HD
BRANCH  40  56
ATOM     56  C   UNL     1      -4.433   1.453  -0.233  0.00  0.00    +0.342 C 
ATOM     57  O   UNL     1      -5.342   2.028   0.426  0.00  0.00    -0.245 OA
BRANCH  56  58
ATOM     58  O   UNL     1      -3.471   2.210  -0.909  0.00  0.00    -0.464 OA
BRANCH  58  59
ATOM     59  C   UNL     1      -3.445   3.631  -0.869  0.00  0.00    +0.082 C 
ATOM     60  H   UNL     1      -4.388   4.041  -1.287  0.00  0.00    +0.066 HD
ATOM     61  H   UNL     1      -3.315   3.979   0.178  0.00  0.00    +0.066 HD
ATOM     62  H   UNL     1      -2.593   3.997  -1.477  0.00  0.00    +0.066 HD
ENDBRANCH  58  59
ENDBRANCH  56  58
ENDBRANCH  40  56
ENDBRANCH  37  39
ENDBRANCH   3  35
BRANCH   2  63
ATOM     63  N   UNL     1       1.947  -1.217  -2.608  0.00  0.00    -0.343 N 
ATOM     64  H   UNL     1       1.107  -1.524  -3.142  0.00  0.00    +0.144 HD
ATOM     65  H   UNL     1       2.862  -1.225  -3.110  0.00  0.00    +0.144 HD
ENDBRANCH   2  63
TORSDOF 9
