REMARK  Name = 
REMARK  9 active torsions:
REMARK  status: ('A' for Active; 'I' for Inactive)
REMARK    1  A    between atoms: C_1  and  C_2
REMARK    2  A    between atoms: C_4  and  C_38
REMARK    3  A    between atoms: C_6  and  N_8
REMARK    4  A    between atoms: C_9  and  N_37
REMARK    5  A    between atoms: C_10  and  C_21
REMARK    6  A    between atoms: N_23  and  C_24
REMARK    7  A    between atoms: C_25  and  C_33
REMARK    8  A    between atoms: C_33  and  O_35
REMARK    9  A    between atoms: O_35  and  C_36
REMARK                            x       y       z     vdW  Elec       q    Type
REMARK                         _______ _______ _______ _____ _____    ______ ____
ROOT
ATOM      1  N   UNL     1      -2.361  -1.331  -0.354  0.00  0.00    -0.280 N 
ATOM      2  C   UNL     1      -1.075  -1.766  -0.481  0.00  0.00    +0.117 A 
ATOM      3  C   UNL     1      -0.197  -0.689  -0.681  0.00  0.00    +0.104 A 
ATOM      4  C   UNL     1      -1.012   0.424  -0.669  0.00  0.00    +0.123 A 
ATOM      5  C   UNL     1      -2.295   0.008  -0.474  0.00  0.00    +0.166 A 
ATOM      6  N   UNL     1      -3.317   0.890  -0.345  0.00  0.00    -0.225 NA
ATOM      7  C   UNL     1      -3.039   2.225  -0.432  0.00  0.00    +0.092 A 
ATOM      8  C   UNL     1      -4.062   3.171  -0.316  0.00  0.00    -0.034 A 
ATOM      9  C   UNL     1      -3.763   4.536  -0.398  0.00  0.00    -0.060 A 
ATOM     10  C   UNL     1      -2.444   4.961  -0.595  0.00  0.00    -0.060 A 
ATOM     11  C   UNL     1      -1.409   4.027  -0.712  0.00  0.00    -0.034 A 
ATOM     12  C   UNL     1      -1.692   2.660  -0.634  0.00  0.00    +0.090 A 
ATOM     13  N   UNL     1      -0.689   1.739  -0.741  0.00  0.00    -0.241 NA
ATOM     14  H   UNL     1      -5.085   2.853  -0.161  0.00  0.00    +0.064 HD
ATOM     15  H   UNL     1      -4.556   5.267  -0.308  0.00  0.00    +0.062 HD
ATOM     16  H   UNL     1      -2.223   6.019  -0.655  0.00  0.00    +0.062 HD
ATOM     17  H   UNL     1      -0.392   4.367  -0.862  0.00  0.00    +0.064 HD
ENDROOT
BRANCH   1  22
ATOM     18  C   UNL     1      -5.855  -2.663  -0.615  0.00  0.00    -0.048 A 
ATOM     19  C   UNL     1      -5.856  -3.610   0.420  0.00  0.00    -0.056 A 
ATOM     20  C   UNL     1      -4.720  -3.783   1.224  0.00  0.00    -0.048 A 
ATOM     21  C   UNL     1      -3.563  -3.036   0.958  0.00  0.00    -0.035 A 
ATOM     22  C   UNL     1      -3.542  -2.108  -0.094  0.00  0.00    +0.050 A 
ATOM     23  C   UNL     1      -4.693  -1.922  -0.874  0.00  0.00    -0.035 A 
ATOM     24  H   UNL     1      -6.741  -4.208   0.602  0.00  0.00    +0.062 HD
ATOM     25  H   UNL     1      -2.682  -3.168   1.573  0.00  0.00    +0.064 HD
ATOM     26  H   UNL     1      -4.677  -1.211  -1.691  0.00  0.00    +0.064 HD
BRANCH  18  27
ATOM     27  C   UNL     1      -7.064  -2.498  -1.489  0.00  0.00    -0.040 C 
ATOM     28  H   UNL     1      -6.996  -3.198  -2.348  0.00  0.00    +0.028 HD
ATOM     29  H   UNL     1      -7.992  -2.713  -0.918  0.00  0.00    +0.028 HD
ATOM     30  H   UNL     1      -7.131  -1.458  -1.873  0.00  0.00    +0.028 HD
ENDBRANCH  18  27
BRANCH  20  31
ATOM     31  C   UNL     1      -4.718  -4.811   2.317  0.00  0.00    -0.040 C 
ATOM     32  H   UNL     1      -5.738  -4.939   2.738  0.00  0.00    +0.028 HD
ATOM     33  H   UNL     1      -4.042  -4.504   3.143  0.00  0.00    +0.028 HD
ATOM     34  H   UNL     1      -4.371  -5.783   1.908  0.00  0.00    +0.028 HD
ENDBRANCH  20  31
ENDBRANCH   1  22
BRANCH   3  35
ATOM     35  C   UNL     1       1.273  -0.699  -0.791  0.00  0.00    +0.254 C 
ATOM     36  O   UNL     1       1.934  -1.661  -0.315  0.00  0.00    -0.270 OA
ATOM     37  N   UNL     1       1.958   0.398  -1.411  0.00  0.00    -0.275 N 
ATOM     38  H   UNL     1       1.483   0.908  -2.189  0.00  0.00    +0.156 HD
BRANCH  37  39
ATOM     39  C   UNL     1       3.340   0.678  -1.163  0.00  0.00    +0.087 A 
ATOM     40  C   UNL     1       3.959   0.765   0.091  0.00  0.00    +0.091 A 
ATOM     41  C   UNL     1       5.344   1.024  -0.023  0.00  0.00    -0.021 A 
ATOM     42  C   UNL     1       5.779   1.104  -1.345  0.00  0.00    -0.004 A 
ATOM     43  S   UNL     1       4.470   0.929  -2.381  0.00  0.00    -0.077 S 
ATOM     44  C   UNL     1       7.176   1.452  -1.759  0.00  0.00    -0.021 C 
ATOM     45  C   UNL     1       8.161   1.220  -0.604  0.00  0.00    -0.048 C 
ATOM     46  C   UNL     1       7.628   1.827   0.703  0.00  0.00    -0.049 C 
ATOM     47  C   UNL     1       6.305   1.167   1.133  0.00  0.00    -0.026 C 
ATOM     48  H   UNL     1       7.473   0.832  -2.632  0.00  0.00    +0.032 HD
ATOM     49  H   UNL     1       7.203   2.521  -2.060  0.00  0.00    +0.032 HD
ATOM     50  H   UNL     1       8.324   0.128  -0.466  0.00  0.00    +0.027 HD
ATOM     51  H   UNL     1       9.138   1.683  -0.857  0.00  0.00    +0.027 HD
ATOM     52  H   UNL     1       7.470   2.920   0.564  0.00  0.00    +0.027 HD
ATOM     53  H   UNL     1       8.382   1.692   1.508  0.00  0.00    +0.027 HD
ATOM     54  H   UNL     1       6.516   0.158   1.546  0.00  0.00    +0.031 HD
ATOM     55  H   UNL     1       5.848   1.788   1.933  0.00  0.00    +0.031 HD
BRANCH  40  56
ATOM     56  C   UNL     1       3.227   0.686   1.372  0.00  0.00    +0.342 C 
ATOM     57  O   UNL     1       3.803   0.251   2.407  0.00  0.00    -0.245 OA
BRANCH  56  58
ATOM     58  O   UNL     1       1.893   1.100   1.431  0.00  0.00    -0.464 OA
BRANCH  58  59
ATOM     59  C   UNL     1       1.101   0.989   2.607  0.00  0.00    +0.082 C 
ATOM     60  H   UNL     1       0.083   1.376   2.397  0.00  0.00    +0.066 HD
ATOM     61  H   UNL     1       1.024  -0.076   2.912  0.00  0.00    +0.066 HD
ATOM     62  H   UNL     1       1.553   1.585   3.428  0.00  0.00    +0.066 HD
ENDBRANCH  58  59
ENDBRANCH  56  58
ENDBRANCH  40  56
ENDBRANCH  37  39
ENDBRANCH   3  35
BRANCH   2  63
ATOM     63  N   UNL     1      -0.706  -3.149  -0.518  0.00  0.00    -0.343 N 
ATOM     64  H   UNL     1      -1.429  -3.899  -0.478  0.00  0.00    +0.144 HD
ATOM     65  H   UNL     1       0.280  -3.444  -0.684  0.00  0.00    +0.144 HD
ENDBRANCH   2  63
TORSDOF 9
