REMARK  Name = 
REMARK  9 active torsions:
REMARK  status: ('A' for Active; 'I' for Inactive)
REMARK    1  A    between atoms: C_1  and  C_2
REMARK    2  A    between atoms: C_4  and  C_38
REMARK    3  A    between atoms: C_6  and  N_8
REMARK    4  A    between atoms: C_9  and  N_37
REMARK    5  A    between atoms: C_10  and  C_21
REMARK    6  A    between atoms: N_23  and  C_24
REMARK    7  A    between atoms: C_25  and  C_33
REMARK    8  A    between atoms: C_33  and  O_35
REMARK    9  A    between atoms: O_35  and  C_36
REMARK                            x       y       z     vdW  Elec       q    Type
REMARK                         _______ _______ _______ _____ _____    ______ ____
ROOT
ATOM      1  N   UNL     1      -2.981  -0.789   0.470  0.00  0.00    -0.280 N 
ATOM      2  C   UNL     1      -1.893  -1.606   0.408  0.00  0.00    +0.117 A 
ATOM      3  C   UNL     1      -0.708  -0.862   0.281  0.00  0.00    +0.104 A 
ATOM      4  C   UNL     1      -1.132   0.453   0.273  0.00  0.00    +0.123 A 
ATOM      5  C   UNL     1      -2.490   0.461   0.391  0.00  0.00    +0.166 A 
ATOM      6  N   UNL     1      -3.196   1.619   0.412  0.00  0.00    -0.225 NA
ATOM      7  C   UNL     1      -2.512   2.799   0.331  0.00  0.00    +0.092 A 
ATOM      8  C   UNL     1      -3.197   4.018   0.353  0.00  0.00    -0.034 A 
ATOM      9  C   UNL     1      -2.486   5.220   0.274  0.00  0.00    -0.060 A 
ATOM     10  C   UNL     1      -1.090   5.211   0.174  0.00  0.00    -0.060 A 
ATOM     11  C   UNL     1      -0.390   4.000   0.151  0.00  0.00    -0.034 A 
ATOM     12  C   UNL     1      -1.087   2.790   0.229  0.00  0.00    +0.090 A 
ATOM     13  N   UNL     1      -0.414   1.601   0.204  0.00  0.00    -0.241 NA
ATOM     14  H   UNL     1      -4.277   4.037   0.431  0.00  0.00    +0.064 HD
ATOM     15  H   UNL     1      -3.018   6.163   0.291  0.00  0.00    +0.062 HD
ATOM     16  H   UNL     1      -0.548   6.146   0.114  0.00  0.00    +0.062 HD
ATOM     17  H   UNL     1       0.690   4.004   0.073  0.00  0.00    +0.064 HD
ENDROOT
BRANCH   1  22
ATOM     18  C   UNL     1      -6.551  -0.905   1.613  0.00  0.00    -0.048 A 
ATOM     19  C   UNL     1      -7.088  -1.833   0.708  0.00  0.00    -0.056 A 
ATOM     20  C   UNL     1      -6.268  -2.446  -0.251  0.00  0.00    -0.048 A 
ATOM     21  C   UNL     1      -4.913  -2.094  -0.329  0.00  0.00    -0.035 A 
ATOM     22  C   UNL     1      -4.367  -1.161   0.565  0.00  0.00    +0.050 A 
ATOM     23  C   UNL     1      -5.194  -0.561   1.527  0.00  0.00    -0.035 A 
ATOM     24  H   UNL     1      -8.143  -2.077   0.750  0.00  0.00    +0.062 HD
ATOM     25  H   UNL     1      -4.285  -2.532  -1.095  0.00  0.00    +0.064 HD
ATOM     26  H   UNL     1      -4.778   0.168   2.212  0.00  0.00    +0.064 HD
BRANCH  18  27
ATOM     27  C   UNL     1      -7.438  -0.227   2.615  0.00  0.00    -0.040 C 
ATOM     28  H   UNL     1      -6.865   0.040   3.528  0.00  0.00    +0.028 HD
ATOM     29  H   UNL     1      -7.859   0.698   2.168  0.00  0.00    +0.028 HD
ATOM     30  H   UNL     1      -8.272  -0.896   2.917  0.00  0.00    +0.028 HD
ENDBRANCH  18  27
BRANCH  20  31
ATOM     31  C   UNL     1      -6.854  -3.409  -1.240  0.00  0.00    -0.040 C 
ATOM     32  H   UNL     1      -7.210  -2.852  -2.131  0.00  0.00    +0.028 HD
ATOM     33  H   UNL     1      -7.709  -3.960  -0.792  0.00  0.00    +0.028 HD
ATOM     34  H   UNL     1      -6.095  -4.155  -1.558  0.00  0.00    +0.028 HD
ENDBRANCH  20  31
ENDBRANCH   1  22
BRANCH   3  35
ATOM     35  C   UNL     1       0.689  -1.345   0.242  0.00  0.00    +0.254 C 
ATOM     36  O   UNL     1       0.971  -2.474   0.723  0.00  0.00    -0.270 OA
ATOM     37  N   UNL     1       1.718  -0.540  -0.354  0.00  0.00    -0.275 N 
ATOM     38  H   UNL     1       1.430   0.228  -0.998  0.00  0.00    +0.156 HD
BRANCH  37  39
ATOM     39  C   UNL     1       3.119  -0.736  -0.102  0.00  0.00    +0.087 A 
ATOM     40  C   UNL     1       4.168  -0.231  -0.884  0.00  0.00    +0.091 A 
ATOM     41  C   UNL     1       5.434  -0.482  -0.307  0.00  0.00    -0.021 A 
ATOM     42  C   UNL     1       5.357  -1.122   0.927  0.00  0.00    -0.004 A 
ATOM     43  S   UNL     1       3.753  -1.440   1.294  0.00  0.00    -0.077 S 
ATOM     44  C   UNL     1       6.541  -1.576   1.727  0.00  0.00    -0.021 C 
ATOM     45  C   UNL     1       7.813  -0.836   1.286  0.00  0.00    -0.048 C 
ATOM     46  C   UNL     1       7.937  -0.819  -0.246  0.00  0.00    -0.049 C 
ATOM     47  C   UNL     1       6.761  -0.067  -0.895  0.00  0.00    -0.026 C 
ATOM     48  H   UNL     1       6.357  -1.390   2.806  0.00  0.00    +0.032 HD
ATOM     49  H   UNL     1       6.676  -2.668   1.575  0.00  0.00    +0.032 HD
ATOM     50  H   UNL     1       8.700  -1.341   1.724  0.00  0.00    +0.027 HD
ATOM     51  H   UNL     1       7.788   0.208   1.668  0.00  0.00    +0.027 HD
ATOM     52  H   UNL     1       8.890  -0.325  -0.533  0.00  0.00    +0.027 HD
ATOM     53  H   UNL     1       7.965  -1.864  -0.626  0.00  0.00    +0.027 HD
ATOM     54  H   UNL     1       6.894   1.024  -0.737  0.00  0.00    +0.031 HD
ATOM     55  H   UNL     1       6.773  -0.272  -1.987  0.00  0.00    +0.031 HD
BRANCH  40  56
ATOM     56  C   UNL     1       3.975   0.464  -2.175  0.00  0.00    +0.342 C 
ATOM     57  O   UNL     1       2.993   0.170  -2.910  0.00  0.00    -0.245 OA
BRANCH  56  58
ATOM     58  O   UNL     1       4.889   1.440  -2.585  0.00  0.00    -0.464 OA
BRANCH  58  59
ATOM     59  C   UNL     1       4.767   2.136  -3.819  0.00  0.00    +0.082 C 
ATOM     60  H   UNL     1       3.809   2.697  -3.846  0.00  0.00    +0.066 HD
ATOM     61  H   UNL     1       4.807   1.419  -4.666  0.00  0.00    +0.066 HD
ATOM     62  H   UNL     1       5.607   2.854  -3.916  0.00  0.00    +0.066 HD
ENDBRANCH  58  59
ENDBRANCH  56  58
ENDBRANCH  40  56
ENDBRANCH  37  39
ENDBRANCH   3  35
BRANCH   2  63
ATOM     63  N   UNL     1      -1.967  -3.034   0.495  0.00  0.00    -0.343 N 
ATOM     64  H   UNL     1      -2.854  -3.507   0.771  0.00  0.00    +0.144 HD
ATOM     65  H   UNL     1      -1.143  -3.635   0.281  0.00  0.00    +0.144 HD
ENDBRANCH   2  63
TORSDOF 9
