REMARK  Name = 
REMARK  9 active torsions:
REMARK  status: ('A' for Active; 'I' for Inactive)
REMARK    1  A    between atoms: C_1  and  C_2
REMARK    2  A    between atoms: C_4  and  C_38
REMARK    3  A    between atoms: C_6  and  N_8
REMARK    4  A    between atoms: C_9  and  N_37
REMARK    5  A    between atoms: C_10  and  C_21
REMARK    6  A    between atoms: N_23  and  C_24
REMARK    7  A    between atoms: C_25  and  C_33
REMARK    8  A    between atoms: C_33  and  O_35
REMARK    9  A    between atoms: O_35  and  C_36
REMARK                            x       y       z     vdW  Elec       q    Type
REMARK                         _______ _______ _______ _____ _____    ______ ____
ROOT
ATOM      1  N   UNL     1      -2.739   0.493   0.612  0.00  0.00    -0.280 N 
ATOM      2  C   UNL     1      -1.590   1.225   0.579  0.00  0.00    +0.117 A 
ATOM      3  C   UNL     1      -0.460   0.396   0.682  0.00  0.00    +0.104 A 
ATOM      4  C   UNL     1      -0.981  -0.879   0.777  0.00  0.00    +0.123 A 
ATOM      5  C   UNL     1      -2.340  -0.787   0.728  0.00  0.00    +0.166 A 
ATOM      6  N   UNL     1      -3.132  -1.886   0.796  0.00  0.00    -0.225 NA
ATOM      7  C   UNL     1      -2.536  -3.111   0.899  0.00  0.00    +0.092 A 
ATOM      8  C   UNL     1      -3.311  -4.273   0.968  0.00  0.00    -0.034 A 
ATOM      9  C   UNL     1      -2.689  -5.522   1.067  0.00  0.00    -0.060 A 
ATOM     10  C   UNL     1      -1.292  -5.617   1.096  0.00  0.00    -0.060 A 
ATOM     11  C   UNL     1      -0.503  -4.464   1.027  0.00  0.00    -0.034 A 
ATOM     12  C   UNL     1      -1.110  -3.208   0.929  0.00  0.00    +0.090 A 
ATOM     13  N   UNL     1      -0.349  -2.075   0.864  0.00  0.00    -0.241 NA
ATOM     14  H   UNL     1      -4.392  -4.211   0.945  0.00  0.00    +0.064 HD
ATOM     15  H   UNL     1      -3.291  -6.420   1.121  0.00  0.00    +0.062 HD
ATOM     16  H   UNL     1      -0.821  -6.589   1.172  0.00  0.00    +0.062 HD
ATOM     17  H   UNL     1       0.576  -4.549   1.051  0.00  0.00    +0.064 HD
ENDROOT
BRANCH   1  22
ATOM     18  C   UNL     1      -5.843   2.451   1.389  0.00  0.00    -0.048 A 
ATOM     19  C   UNL     1      -6.755   1.861   0.503  0.00  0.00    -0.056 A 
ATOM     20  C   UNL     1      -6.349   0.822  -0.348  0.00  0.00    -0.048 A 
ATOM     21  C   UNL     1      -5.015   0.390  -0.323  0.00  0.00    -0.035 A 
ATOM     22  C   UNL     1      -4.096   0.967   0.566  0.00  0.00    +0.050 A 
ATOM     23  C   UNL     1      -4.521   1.985   1.433  0.00  0.00    -0.035 A 
ATOM     24  H   UNL     1      -7.782   2.207   0.476  0.00  0.00    +0.062 HD
ATOM     25  H   UNL     1      -4.688  -0.391  -0.999  0.00  0.00    +0.064 HD
ATOM     26  H   UNL     1      -3.822   2.409   2.144  0.00  0.00    +0.064 HD
BRANCH  18  27
ATOM     27  C   UNL     1      -6.296   3.523   2.336  0.00  0.00    -0.040 C 
ATOM     28  H   UNL     1      -5.460   4.215   2.574  0.00  0.00    +0.028 HD
ATOM     29  H   UNL     1      -6.658   3.056   3.276  0.00  0.00    +0.028 HD
ATOM     30  H   UNL     1      -7.118   4.121   1.888  0.00  0.00    +0.028 HD
ENDBRANCH  18  27
BRANCH  20  31
ATOM     31  C   UNL     1      -7.317   0.224  -1.325  0.00  0.00    -0.040 C 
ATOM     32  H   UNL     1      -8.351   0.255  -0.923  0.00  0.00    +0.028 HD
ATOM     33  H   UNL     1      -7.061  -0.838  -1.530  0.00  0.00    +0.028 HD
ATOM     34  H   UNL     1      -7.281   0.795  -2.276  0.00  0.00    +0.028 HD
ENDBRANCH  20  31
ENDBRANCH   1  22
BRANCH   3  35
ATOM     35  C   UNL     1       0.969   0.764   0.620  0.00  0.00    +0.254 C 
ATOM     36  O   UNL     1       1.313   1.857   0.095  0.00  0.00    -0.270 OA
ATOM     37  N   UNL     1       1.967  -0.118   1.155  0.00  0.00    -0.275 N 
ATOM     38  H   UNL     1       1.695  -0.762   1.930  0.00  0.00    +0.156 HD
BRANCH  37  39
ATOM     39  C   UNL     1       3.365   0.047   0.889  0.00  0.00    +0.087 A 
ATOM     40  C   UNL     1       3.966   0.234  -0.364  0.00  0.00    +0.091 A 
ATOM     41  C   UNL     1       5.366   0.389  -0.259  0.00  0.00    -0.021 A 
ATOM     42  C   UNL     1       5.825   0.349   1.056  0.00  0.00    -0.004 A 
ATOM     43  S   UNL     1       4.538   0.057   2.093  0.00  0.00    -0.077 S 
ATOM     44  C   UNL     1       7.269   0.400   1.454  0.00  0.00    -0.021 C 
ATOM     45  C   UNL     1       8.125   0.990   0.324  0.00  0.00    -0.048 C 
ATOM     46  C   UNL     1       7.775   0.343  -1.025  0.00  0.00    -0.049 C 
ATOM     47  C   UNL     1       6.311   0.613  -1.416  0.00  0.00    -0.026 C 
ATOM     48  H   UNL     1       7.613  -0.632   1.681  0.00  0.00    +0.032 HD
ATOM     49  H   UNL     1       7.383   1.019   2.370  0.00  0.00    +0.032 HD
ATOM     50  H   UNL     1       7.958   2.088   0.263  0.00  0.00    +0.027 HD
ATOM     51  H   UNL     1       9.199   0.818   0.550  0.00  0.00    +0.027 HD
ATOM     52  H   UNL     1       7.946  -0.755  -0.963  0.00  0.00    +0.027 HD
ATOM     53  H   UNL     1       8.445   0.748  -1.814  0.00  0.00    +0.027 HD
ATOM     54  H   UNL     1       6.211   1.666  -1.756  0.00  0.00    +0.031 HD
ATOM     55  H   UNL     1       6.044  -0.059  -2.259  0.00  0.00    +0.031 HD
BRANCH  40  56
ATOM     56  C   UNL     1       3.233   0.191  -1.647  0.00  0.00    +0.342 C 
ATOM     57  O   UNL     1       2.195  -0.517  -1.756  0.00  0.00    -0.245 OA
BRANCH  56  58
ATOM     58  O   UNL     1       3.694   0.933  -2.739  0.00  0.00    -0.464 OA
BRANCH  58  59
ATOM     59  C   UNL     1       3.035   0.934  -3.999  0.00  0.00    +0.082 C 
ATOM     60  H   UNL     1       3.014  -0.095  -4.417  0.00  0.00    +0.066 HD
ATOM     61  H   UNL     1       3.587   1.595  -4.698  0.00  0.00    +0.066 HD
ATOM     62  H   UNL     1       1.998   1.315  -3.885  0.00  0.00    +0.066 HD
ENDBRANCH  58  59
ENDBRANCH  56  58
ENDBRANCH  40  56
ENDBRANCH  37  39
ENDBRANCH   3  35
BRANCH   2  63
ATOM     63  N   UNL     1      -1.560   2.648   0.420  0.00  0.00    -0.343 N 
ATOM     64  H   UNL     1      -0.684   3.193   0.561  0.00  0.00    +0.144 HD
ATOM     65  H   UNL     1      -2.423   3.175   0.163  0.00  0.00    +0.144 HD
ENDBRANCH   2  63
TORSDOF 9
