REMARK  Name = 
REMARK  9 active torsions:
REMARK  status: ('A' for Active; 'I' for Inactive)
REMARK    1  A    between atoms: C_1  and  C_2
REMARK    2  A    between atoms: C_4  and  C_38
REMARK    3  A    between atoms: C_6  and  N_8
REMARK    4  A    between atoms: C_9  and  N_37
REMARK    5  A    between atoms: C_10  and  C_21
REMARK    6  A    between atoms: N_23  and  C_24
REMARK    7  A    between atoms: C_25  and  C_33
REMARK    8  A    between atoms: C_33  and  O_35
REMARK    9  A    between atoms: O_35  and  C_36
REMARK                            x       y       z     vdW  Elec       q    Type
REMARK                         _______ _______ _______ _____ _____    ______ ____
ROOT
ATOM      1  N   UNL     1      -2.798  -0.441   0.090  0.00  0.00    -0.280 N 
ATOM      2  C   UNL     1      -1.679  -1.159   0.389  0.00  0.00    +0.117 A 
ATOM      3  C   UNL     1      -0.566  -0.317   0.549  0.00  0.00    +0.104 A 
ATOM      4  C   UNL     1      -1.065   0.952   0.328  0.00  0.00    +0.123 A 
ATOM      5  C   UNL     1      -2.395   0.843   0.053  0.00  0.00    +0.166 A 
ATOM      6  N   UNL     1      -3.160   1.931  -0.213  0.00  0.00    -0.225 NA
ATOM      7  C   UNL     1      -2.561   3.160  -0.218  0.00  0.00    +0.092 A 
ATOM      8  C   UNL     1      -3.308   4.310  -0.490  0.00  0.00    -0.034 A 
ATOM      9  C   UNL     1      -2.683   5.562  -0.499  0.00  0.00    -0.060 A 
ATOM     10  C   UNL     1      -1.312   5.671  -0.237  0.00  0.00    -0.060 A 
ATOM     11  C   UNL     1      -0.552   4.529   0.037  0.00  0.00    -0.034 A 
ATOM     12  C   UNL     1      -1.162   3.271   0.050  0.00  0.00    +0.090 A 
ATOM     13  N   UNL     1      -0.429   2.149   0.319  0.00  0.00    -0.241 NA
ATOM     14  H   UNL     1      -4.369   4.237  -0.696  0.00  0.00    +0.064 HD
ATOM     15  H   UNL     1      -3.263   6.451  -0.710  0.00  0.00    +0.062 HD
ATOM     16  H   UNL     1      -0.838   6.644  -0.246  0.00  0.00    +0.062 HD
ATOM     17  H   UNL     1       0.508   4.625   0.239  0.00  0.00    +0.064 HD
ENDROOT
BRANCH   1  22
ATOM     18  C   UNL     1      -6.186  -0.957  -1.431  0.00  0.00    -0.048 A 
ATOM     19  C   UNL     1      -6.763  -1.836  -0.501  0.00  0.00    -0.056 A 
ATOM     20  C   UNL     1      -6.037  -2.257   0.623  0.00  0.00    -0.048 A 
ATOM     21  C   UNL     1      -4.733  -1.780   0.822  0.00  0.00    -0.035 A 
ATOM     22  C   UNL     1      -4.136  -0.925  -0.116  0.00  0.00    +0.050 A 
ATOM     23  C   UNL     1      -4.868  -0.518  -1.242  0.00  0.00    -0.035 A 
ATOM     24  H   UNL     1      -7.776  -2.189  -0.651  0.00  0.00    +0.062 HD
ATOM     25  H   UNL     1      -4.182  -2.069   1.710  0.00  0.00    +0.064 HD
ATOM     26  H   UNL     1      -4.407   0.136  -1.973  0.00  0.00    +0.064 HD
BRANCH  18  27
ATOM     27  C   UNL     1      -6.950  -0.545  -2.654  0.00  0.00    -0.040 C 
ATOM     28  H   UNL     1      -8.041  -0.513  -2.444  0.00  0.00    +0.028 HD
ATOM     29  H   UNL     1      -6.760  -1.273  -3.470  0.00  0.00    +0.028 HD
ATOM     30  H   UNL     1      -6.637   0.466  -2.990  0.00  0.00    +0.028 HD
ENDBRANCH  18  27
BRANCH  20  31
ATOM     31  C   UNL     1      -6.677  -3.151   1.644  0.00  0.00    -0.040 C 
ATOM     32  H   UNL     1      -7.190  -2.530   2.408  0.00  0.00    +0.028 HD
ATOM     33  H   UNL     1      -7.419  -3.824   1.165  0.00  0.00    +0.028 HD
ATOM     34  H   UNL     1      -5.913  -3.784   2.144  0.00  0.00    +0.028 HD
ENDBRANCH  20  31
ENDBRANCH   1  22
BRANCH   3  35
ATOM     35  C   UNL     1       0.842  -0.680   0.808  0.00  0.00    +0.254 C 
ATOM     36  O   UNL     1       1.248  -1.843   0.546  0.00  0.00    -0.270 OA
ATOM     37  N   UNL     1       1.750   0.287   1.356  0.00  0.00    -0.275 N 
ATOM     38  H   UNL     1       1.359   1.057   1.944  0.00  0.00    +0.156 HD
BRANCH  37  39
ATOM     39  C   UNL     1       3.168   0.090   1.378  0.00  0.00    +0.087 A 
ATOM     40  C   UNL     1       3.975  -0.325   0.308  0.00  0.00    +0.091 A 
ATOM     41  C   UNL     1       5.331  -0.463   0.693  0.00  0.00    -0.021 A 
ATOM     42  C   UNL     1       5.561  -0.081   2.014  0.00  0.00    -0.004 A 
ATOM     43  S   UNL     1       4.113   0.351   2.743  0.00  0.00    -0.077 S 
ATOM     44  C   UNL     1       6.898  -0.111   2.688  0.00  0.00    -0.021 C 
ATOM     45  C   UNL     1       8.026  -0.074   1.649  0.00  0.00    -0.048 C 
ATOM     46  C   UNL     1       7.777  -1.103   0.537  0.00  0.00    -0.049 C 
ATOM     47  C   UNL     1       6.476  -0.808  -0.232  0.00  0.00    -0.026 C 
ATOM     48  H   UNL     1       6.994   0.760   3.371  0.00  0.00    +0.032 HD
ATOM     49  H   UNL     1       6.974  -1.042   3.290  0.00  0.00    +0.032 HD
ATOM     50  H   UNL     1       8.093   0.944   1.204  0.00  0.00    +0.027 HD
ATOM     51  H   UNL     1       8.993  -0.295   2.149  0.00  0.00    +0.027 HD
ATOM     52  H   UNL     1       7.721  -2.120   0.984  0.00  0.00    +0.027 HD
ATOM     53  H   UNL     1       8.632  -1.093  -0.174  0.00  0.00    +0.027 HD
ATOM     54  H   UNL     1       6.228  -1.709  -0.828  0.00  0.00    +0.031 HD
ATOM     55  H   UNL     1       6.643   0.044  -0.925  0.00  0.00    +0.031 HD
BRANCH  40  56
ATOM     56  C   UNL     1       3.483  -0.464  -1.081  0.00  0.00    +0.342 C 
ATOM     57  O   UNL     1       2.502   0.228  -1.470  0.00  0.00    -0.245 OA
BRANCH  56  58
ATOM     58  O   UNL     1       4.105  -1.349  -1.965  0.00  0.00    -0.464 OA
BRANCH  58  59
ATOM     59  C   UNL     1       3.675  -1.521  -3.310  0.00  0.00    +0.082 C 
ATOM     60  H   UNL     1       3.755  -0.560  -3.860  0.00  0.00    +0.066 HD
ATOM     61  H   UNL     1       2.624  -1.879  -3.330  0.00  0.00    +0.066 HD
ATOM     62  H   UNL     1       4.321  -2.274  -3.805  0.00  0.00    +0.066 HD
ENDBRANCH  58  59
ENDBRANCH  56  58
ENDBRANCH  40  56
ENDBRANCH  37  39
ENDBRANCH   3  35
BRANCH   2  63
ATOM     63  N   UNL     1      -1.656  -2.588   0.485  0.00  0.00    -0.343 N 
ATOM     64  H   UNL     1      -0.832  -3.094   0.873  0.00  0.00    +0.144 HD
ATOM     65  H   UNL     1      -2.472  -3.158   0.173  0.00  0.00    +0.144 HD
ENDBRANCH   2  63
TORSDOF 9
