REMARK  Name = 
REMARK  9 active torsions:
REMARK  status: ('A' for Active; 'I' for Inactive)
REMARK    1  A    between atoms: C_1  and  C_2
REMARK    2  A    between atoms: C_4  and  C_38
REMARK    3  A    between atoms: C_6  and  N_8
REMARK    4  A    between atoms: C_9  and  N_37
REMARK    5  A    between atoms: C_10  and  C_21
REMARK    6  A    between atoms: N_23  and  C_24
REMARK    7  A    between atoms: C_25  and  C_33
REMARK    8  A    between atoms: C_33  and  O_35
REMARK    9  A    between atoms: O_35  and  C_36
REMARK                            x       y       z     vdW  Elec       q    Type
REMARK                         _______ _______ _______ _____ _____    ______ ____
ROOT
ATOM      1  N   UNL     1      -2.619   0.580   0.472  0.00  0.00    -0.280 N 
ATOM      2  C   UNL     1      -1.520   0.824   1.240  0.00  0.00    +0.117 A 
ATOM      3  C   UNL     1      -0.459  -0.025   0.885  0.00  0.00    +0.104 A 
ATOM      4  C   UNL     1      -0.966  -0.795  -0.142  0.00  0.00    +0.123 A 
ATOM      5  C   UNL     1      -2.253  -0.407  -0.367  0.00  0.00    +0.166 A 
ATOM      6  N   UNL     1      -3.008  -0.975  -1.340  0.00  0.00    -0.225 NA
ATOM      7  C   UNL     1      -2.444  -1.949  -2.115  0.00  0.00    +0.092 A 
ATOM      8  C   UNL     1      -3.182  -2.561  -3.132  0.00  0.00    -0.034 A 
ATOM      9  C   UNL     1      -2.590  -3.550  -3.926  0.00  0.00    -0.060 A 
ATOM     10  C   UNL     1      -1.261  -3.931  -3.708  0.00  0.00    -0.060 A 
ATOM     11  C   UNL     1      -0.509  -3.328  -2.694  0.00  0.00    -0.034 A 
ATOM     12  C   UNL     1      -1.087  -2.339  -1.891  0.00  0.00    +0.090 A 
ATOM     13  N   UNL     1      -0.362  -1.744  -0.898  0.00  0.00    -0.241 NA
ATOM     14  H   UNL     1      -4.210  -2.272  -3.312  0.00  0.00    +0.064 HD
ATOM     15  H   UNL     1      -3.163  -4.022  -4.713  0.00  0.00    +0.062 HD
ATOM     16  H   UNL     1      -0.812  -4.697  -4.328  0.00  0.00    +0.062 HD
ATOM     17  H   UNL     1       0.518  -3.630  -2.534  0.00  0.00    +0.064 HD
ENDROOT
BRANCH   1  22
ATOM     18  C   UNL     1      -5.781   2.299  -0.581  0.00  0.00    -0.048 A 
ATOM     19  C   UNL     1      -6.436   2.427   0.653  0.00  0.00    -0.056 A 
ATOM     20  C   UNL     1      -5.837   1.949   1.828  0.00  0.00    -0.048 A 
ATOM     21  C   UNL     1      -4.583   1.325   1.761  0.00  0.00    -0.035 A 
ATOM     22  C   UNL     1      -3.906   1.217   0.536  0.00  0.00    +0.050 A 
ATOM     23  C   UNL     1      -4.510   1.708  -0.631  0.00  0.00    -0.035 A 
ATOM     24  H   UNL     1      -7.412   2.896   0.699  0.00  0.00    +0.062 HD
ATOM     25  H   UNL     1      -4.134   0.917   2.659  0.00  0.00    +0.064 HD
ATOM     26  H   UNL     1      -3.986   1.635  -1.576  0.00  0.00    +0.064 HD
BRANCH  18  27
ATOM     27  C   UNL     1      -6.405   2.852  -1.828  0.00  0.00    -0.040 C 
ATOM     28  H   UNL     1      -6.087   2.268  -2.718  0.00  0.00    +0.028 HD
ATOM     29  H   UNL     1      -6.094   3.909  -1.958  0.00  0.00    +0.028 HD
ATOM     30  H   UNL     1      -7.513   2.805  -1.766  0.00  0.00    +0.028 HD
ENDBRANCH  18  27
BRANCH  20  31
ATOM     31  C   UNL     1      -6.566   2.038   3.137  0.00  0.00    -0.040 C 
ATOM     32  H   UNL     1      -7.187   1.128   3.276  0.00  0.00    +0.028 HD
ATOM     33  H   UNL     1      -5.847   2.118   3.980  0.00  0.00    +0.028 HD
ATOM     34  H   UNL     1      -7.223   2.933   3.160  0.00  0.00    +0.028 HD
ENDBRANCH  20  31
ENDBRANCH   1  22
BRANCH   3  35
ATOM     35  C   UNL     1       0.930  -0.032   1.382  0.00  0.00    +0.254 C 
ATOM     36  O   UNL     1       1.407   0.996   1.933  0.00  0.00    -0.270 OA
ATOM     37  N   UNL     1       1.749  -1.197   1.216  0.00  0.00    -0.275 N 
ATOM     38  H   UNL     1       1.292  -2.137   1.233  0.00  0.00    +0.156 HD
BRANCH  37  39
ATOM     39  C   UNL     1       3.179  -1.140   1.250  0.00  0.00    +0.087 A 
ATOM     40  C   UNL     1       3.993  -0.233   0.558  0.00  0.00    +0.091 A 
ATOM     41  C   UNL     1       5.364  -0.420   0.856  0.00  0.00    -0.021 A 
ATOM     42  C   UNL     1       5.591  -1.506   1.702  0.00  0.00    -0.004 A 
ATOM     43  S   UNL     1       4.127  -2.194   2.151  0.00  0.00    -0.077 S 
ATOM     44  C   UNL     1       6.940  -1.940   2.184  0.00  0.00    -0.021 C 
ATOM     45  C   UNL     1       8.040  -1.428   1.244  0.00  0.00    -0.048 C 
ATOM     46  C   UNL     1       7.847   0.064   0.937  0.00  0.00    -0.049 C 
ATOM     47  C   UNL     1       6.511   0.327   0.217  0.00  0.00    -0.026 C 
ATOM     48  H   UNL     1       7.103  -1.534   3.205  0.00  0.00    +0.032 HD
ATOM     49  H   UNL     1       6.982  -3.049   2.234  0.00  0.00    +0.032 HD
ATOM     50  H   UNL     1       8.021  -2.008   0.295  0.00  0.00    +0.027 HD
ATOM     51  H   UNL     1       9.032  -1.583   1.722  0.00  0.00    +0.027 HD
ATOM     52  H   UNL     1       7.875   0.641   1.888  0.00  0.00    +0.027 HD
ATOM     53  H   UNL     1       8.683   0.421   0.298  0.00  0.00    +0.027 HD
ATOM     54  H   UNL     1       6.597   0.007  -0.844  0.00  0.00    +0.031 HD
ATOM     55  H   UNL     1       6.320   1.419   0.245  0.00  0.00    +0.031 HD
BRANCH  40  56
ATOM     56  C   UNL     1       3.474   0.706  -0.462  0.00  0.00    +0.342 C 
ATOM     57  O   UNL     1       4.081   1.784  -0.707  0.00  0.00    -0.245 OA
BRANCH  56  58
ATOM     58  O   UNL     1       2.306   0.386  -1.161  0.00  0.00    -0.464 OA
BRANCH  58  59
ATOM     59  C   UNL     1       1.706   1.263  -2.106  0.00  0.00    +0.082 C 
ATOM     60  H   UNL     1       2.413   1.467  -2.938  0.00  0.00    +0.066 HD
ATOM     61  H   UNL     1       0.793   0.785  -2.516  0.00  0.00    +0.066 HD
ATOM     62  H   UNL     1       1.421   2.215  -1.611  0.00  0.00    +0.066 HD
ENDBRANCH  58  59
ENDBRANCH  56  58
ENDBRANCH  40  56
ENDBRANCH  37  39
ENDBRANCH   3  35
BRANCH   2  63
ATOM     63  N   UNL     1      -1.460   1.849   2.238  0.00  0.00    -0.343 N 
ATOM     64  H   UNL     1      -0.662   1.909   2.907  0.00  0.00    +0.144 HD
ATOM     65  H   UNL     1      -2.218   2.561   2.321  0.00  0.00    +0.144 HD
ENDBRANCH   2  63
TORSDOF 9
