REMARK  Name = 
REMARK  9 active torsions:
REMARK  status: ('A' for Active; 'I' for Inactive)
REMARK    1  A    between atoms: C_1  and  C_2
REMARK    2  A    between atoms: C_4  and  C_38
REMARK    3  A    between atoms: C_6  and  N_8
REMARK    4  A    between atoms: C_9  and  N_37
REMARK    5  A    between atoms: C_10  and  C_21
REMARK    6  A    between atoms: N_23  and  C_24
REMARK    7  A    between atoms: C_25  and  C_33
REMARK    8  A    between atoms: C_33  and  O_35
REMARK    9  A    between atoms: O_35  and  C_36
REMARK                            x       y       z     vdW  Elec       q    Type
REMARK                         _______ _______ _______ _____ _____    ______ ____
ROOT
ATOM      1  N   UNL     1      -2.836   0.820  -0.029  0.00  0.00    -0.280 N 
ATOM      2  C   UNL     1      -1.701   1.574   0.001  0.00  0.00    +0.117 A 
ATOM      3  C   UNL     1      -0.562   0.766   0.163  0.00  0.00    +0.104 A 
ATOM      4  C   UNL     1      -1.063  -0.519   0.227  0.00  0.00    +0.123 A 
ATOM      5  C   UNL     1      -2.420  -0.453   0.108  0.00  0.00    +0.166 A 
ATOM      6  N   UNL     1      -3.197  -1.561   0.184  0.00  0.00    -0.225 NA
ATOM      7  C   UNL     1      -2.589  -2.770   0.372  0.00  0.00    +0.092 A 
ATOM      8  C   UNL     1      -3.349  -3.942   0.446  0.00  0.00    -0.034 A 
ATOM      9  C   UNL     1      -2.715  -5.174   0.643  0.00  0.00    -0.060 A 
ATOM     10  C   UNL     1      -1.322  -5.241   0.768  0.00  0.00    -0.060 A 
ATOM     11  C   UNL     1      -0.549  -4.077   0.698  0.00  0.00    -0.034 A 
ATOM     12  C   UNL     1      -1.167  -2.839   0.499  0.00  0.00    +0.090 A 
ATOM     13  N   UNL     1      -0.422  -1.696   0.432  0.00  0.00    -0.241 NA
ATOM     14  H   UNL     1      -4.427  -3.901   0.352  0.00  0.00    +0.064 HD
ATOM     15  H   UNL     1      -3.305  -6.079   0.700  0.00  0.00    +0.062 HD
ATOM     16  H   UNL     1      -0.841  -6.199   0.921  0.00  0.00    +0.062 HD
ATOM     17  H   UNL     1       0.528  -4.141   0.796  0.00  0.00    +0.064 HD
ENDROOT
BRANCH   1  22
ATOM     18  C   UNL     1      -6.019   2.706   0.589  0.00  0.00    -0.048 A 
ATOM     19  C   UNL     1      -6.859   2.124  -0.371  0.00  0.00    -0.056 A 
ATOM     20  C   UNL     1      -6.389   1.089  -1.194  0.00  0.00    -0.048 A 
ATOM     21  C   UNL     1      -5.055   0.671  -1.084  0.00  0.00    -0.035 A 
ATOM     22  C   UNL     1      -4.197   1.266  -0.147  0.00  0.00    +0.050 A 
ATOM     23  C   UNL     1      -4.686   2.279   0.691  0.00  0.00    -0.035 A 
ATOM     24  H   UNL     1      -7.880   2.473  -0.475  0.00  0.00    +0.062 HD
ATOM     25  H   UNL     1      -4.677  -0.106  -1.738  0.00  0.00    +0.064 HD
ATOM     26  H   UNL     1      -4.031   2.729   1.427  0.00  0.00    +0.064 HD
BRANCH  18  27
ATOM     27  C   UNL     1      -6.519   3.826   1.452  0.00  0.00    -0.040 C 
ATOM     28  H   UNL     1      -7.609   3.720   1.639  0.00  0.00    +0.028 HD
ATOM     29  H   UNL     1      -6.001   3.826   2.434  0.00  0.00    +0.028 HD
ATOM     30  H   UNL     1      -6.332   4.795   0.943  0.00  0.00    +0.028 HD
ENDBRANCH  18  27
BRANCH  20  31
ATOM     31  C   UNL     1      -7.284   0.487  -2.236  0.00  0.00    -0.040 C 
ATOM     32  H   UNL     1      -7.006  -0.571  -2.427  0.00  0.00    +0.028 HD
ATOM     33  H   UNL     1      -8.344   0.508  -1.903  0.00  0.00    +0.028 HD
ATOM     34  H   UNL     1      -7.190   1.063  -3.180  0.00  0.00    +0.028 HD
ENDBRANCH  20  31
ENDBRANCH   1  22
BRANCH   3  35
ATOM     35  C   UNL     1       0.853   1.175   0.278  0.00  0.00    +0.254 C 
ATOM     36  O   UNL     1       1.134   2.339   0.669  0.00  0.00    -0.270 OA
ATOM     37  N   UNL     1       1.903   0.260  -0.069  0.00  0.00    -0.275 N 
ATOM     38  H   UNL     1       1.659  -0.579  -0.638  0.00  0.00    +0.156 HD
BRANCH  37  39
ATOM     39  C   UNL     1       3.272   0.438   0.332  0.00  0.00    +0.087 A 
ATOM     40  C   UNL     1       4.381  -0.180  -0.263  0.00  0.00    +0.091 A 
ATOM     41  C   UNL     1       5.579   0.068   0.452  0.00  0.00    -0.021 A 
ATOM     42  C   UNL     1       5.393   0.907   1.549  0.00  0.00    -0.004 A 
ATOM     43  S   UNL     1       3.767   1.281   1.706  0.00  0.00    -0.077 S 
ATOM     44  C   UNL     1       6.477   1.330   2.492  0.00  0.00    -0.021 C 
ATOM     45  C   UNL     1       7.851   1.205   1.821  0.00  0.00    -0.048 C 
ATOM     46  C   UNL     1       8.005  -0.164   1.143  0.00  0.00    -0.049 C 
ATOM     47  C   UNL     1       6.963  -0.368   0.028  0.00  0.00    -0.026 C 
ATOM     48  H   UNL     1       6.312   2.383   2.806  0.00  0.00    +0.032 HD
ATOM     49  H   UNL     1       6.441   0.682   3.393  0.00  0.00    +0.032 HD
ATOM     50  H   UNL     1       8.646   1.331   2.588  0.00  0.00    +0.027 HD
ATOM     51  H   UNL     1       7.973   2.010   1.064  0.00  0.00    +0.027 HD
ATOM     52  H   UNL     1       7.893  -0.966   1.906  0.00  0.00    +0.027 HD
ATOM     53  H   UNL     1       9.026  -0.249   0.710  0.00  0.00    +0.027 HD
ATOM     54  H   UNL     1       6.963  -1.444  -0.239  0.00  0.00    +0.031 HD
ATOM     55  H   UNL     1       7.262   0.220  -0.867  0.00  0.00    +0.031 HD
BRANCH  40  56
ATOM     56  C   UNL     1       4.301  -0.935  -1.534  0.00  0.00    +0.342 C 
ATOM     57  O   UNL     1       5.120  -1.862  -1.778  0.00  0.00    -0.245 OA
BRANCH  56  58
ATOM     58  O   UNL     1       3.318  -0.607  -2.473  0.00  0.00    -0.464 OA
BRANCH  58  59
ATOM     59  C   UNL     1       3.171  -1.301  -3.706  0.00  0.00    +0.082 C 
ATOM     60  H   UNL     1       4.099  -1.205  -4.309  0.00  0.00    +0.066 HD
ATOM     61  H   UNL     1       2.956  -2.374  -3.515  0.00  0.00    +0.066 HD
ATOM     62  H   UNL     1       2.326  -0.860  -4.273  0.00  0.00    +0.066 HD
ENDBRANCH  58  59
ENDBRANCH  56  58
ENDBRANCH  40  56
ENDBRANCH  37  39
ENDBRANCH   3  35
BRANCH   2  63
ATOM     63  N   UNL     1      -1.683   2.987  -0.233  0.00  0.00    -0.343 N 
ATOM     64  H   UNL     1      -0.788   3.521  -0.278  0.00  0.00    +0.144 HD
ATOM     65  H   UNL     1      -2.559   3.504  -0.463  0.00  0.00    +0.144 HD
ENDBRANCH   2  63
TORSDOF 9
