REMARK  Name = 
REMARK  9 active torsions:
REMARK  status: ('A' for Active; 'I' for Inactive)
REMARK    1  A    between atoms: C_1  and  C_2
REMARK    2  A    between atoms: C_4  and  C_38
REMARK    3  A    between atoms: C_6  and  N_8
REMARK    4  A    between atoms: C_9  and  N_37
REMARK    5  A    between atoms: C_10  and  C_21
REMARK    6  A    between atoms: N_23  and  C_24
REMARK    7  A    between atoms: C_25  and  C_33
REMARK    8  A    between atoms: C_33  and  O_35
REMARK    9  A    between atoms: O_35  and  C_36
REMARK                            x       y       z     vdW  Elec       q    Type
REMARK                         _______ _______ _______ _____ _____    ______ ____
ROOT
ATOM      1  N   UNL     1       2.932  -0.320   0.984  0.00  0.00    -0.280 N 
ATOM      2  C   UNL     1       1.794  -0.219   1.726  0.00  0.00    +0.117 A 
ATOM      3  C   UNL     1       0.678   0.021   0.908  0.00  0.00    +0.104 A 
ATOM      4  C   UNL     1       1.195   0.062  -0.372  0.00  0.00    +0.123 A 
ATOM      5  C   UNL     1       2.540  -0.148  -0.292  0.00  0.00    +0.166 A 
ATOM      6  N   UNL     1       3.333  -0.109  -1.391  0.00  0.00    -0.225 NA
ATOM      7  C   UNL     1       2.752   0.133  -2.605  0.00  0.00    +0.092 A 
ATOM      8  C   UNL     1       3.528   0.171  -3.767  0.00  0.00    -0.034 A 
ATOM      9  C   UNL     1       2.922   0.425  -5.003  0.00  0.00    -0.060 A 
ATOM     10  C   UNL     1       1.542   0.643  -5.083  0.00  0.00    -0.060 A 
ATOM     11  C   UNL     1       0.752   0.610  -3.928  0.00  0.00    -0.034 A 
ATOM     12  C   UNL     1       1.343   0.356  -2.687  0.00  0.00    +0.090 A 
ATOM     13  N   UNL     1       0.583   0.326  -1.552  0.00  0.00    -0.241 NA
ATOM     14  H   UNL     1       4.597   0.005  -3.716  0.00  0.00    +0.064 HD
ATOM     15  H   UNL     1       3.525   0.453  -5.902  0.00  0.00    +0.062 HD
ATOM     16  H   UNL     1       1.083   0.839  -6.043  0.00  0.00    +0.062 HD
ATOM     17  H   UNL     1      -0.315   0.781  -4.001  0.00  0.00    +0.064 HD
ENDROOT
BRANCH   1  22
ATOM     18  C   UNL     1       6.412  -1.688   1.262  0.00  0.00    -0.048 A 
ATOM     19  C   UNL     1       6.921  -0.906   2.310  0.00  0.00    -0.056 A 
ATOM     20  C   UNL     1       6.119   0.069   2.923  0.00  0.00    -0.048 A 
ATOM     21  C   UNL     1       4.807   0.269   2.471  0.00  0.00    -0.035 A 
ATOM     22  C   UNL     1       4.278  -0.527   1.444  0.00  0.00    +0.050 A 
ATOM     23  C   UNL     1       5.086  -1.505   0.844  0.00  0.00    -0.035 A 
ATOM     24  H   UNL     1       7.941  -1.054   2.646  0.00  0.00    +0.062 HD
ATOM     25  H   UNL     1       4.197   1.048   2.912  0.00  0.00    +0.064 HD
ATOM     26  H   UNL     1       4.678  -2.126   0.056  0.00  0.00    +0.064 HD
BRANCH  18  27
ATOM     27  C   UNL     1       7.258  -2.759   0.640  0.00  0.00    -0.040 C 
ATOM     28  H   UNL     1       6.972  -2.916  -0.422  0.00  0.00    +0.028 HD
ATOM     29  H   UNL     1       8.332  -2.475   0.666  0.00  0.00    +0.028 HD
ATOM     30  H   UNL     1       7.120  -3.709   1.197  0.00  0.00    +0.028 HD
ENDBRANCH  18  27
BRANCH  20  31
ATOM     31  C   UNL     1       6.686   0.941   4.004  0.00  0.00    -0.040 C 
ATOM     32  H   UNL     1       7.150   1.840   3.548  0.00  0.00    +0.028 HD
ATOM     33  H   UNL     1       7.455   0.392   4.588  0.00  0.00    +0.028 HD
ATOM     34  H   UNL     1       5.887   1.263   4.707  0.00  0.00    +0.028 HD
ENDBRANCH  20  31
ENDBRANCH   1  22
BRANCH   3  35
ATOM     35  C   UNL     1      -0.728   0.232   1.311  0.00  0.00    +0.254 C 
ATOM     36  O   UNL     1      -0.978   0.720   2.445  0.00  0.00    -0.270 OA
ATOM     37  N   UNL     1      -1.798  -0.083   0.405  0.00  0.00    -0.275 N 
ATOM     38  H   UNL     1      -1.563  -0.561  -0.492  0.00  0.00    +0.156 HD
BRANCH  37  39
ATOM     39  C   UNL     1      -3.183   0.193   0.669  0.00  0.00    +0.087 A 
ATOM     40  C   UNL     1      -4.181   0.336  -0.306  0.00  0.00    +0.091 A 
ATOM     41  C   UNL     1      -5.468   0.479   0.262  0.00  0.00    -0.021 A 
ATOM     42  C   UNL     1      -5.467   0.390   1.652  0.00  0.00    -0.004 A 
ATOM     43  S   UNL     1      -3.893   0.201   2.200  0.00  0.00    -0.077 S 
ATOM     44  C   UNL     1      -6.675   0.577   2.518  0.00  0.00    -0.021 C 
ATOM     45  C   UNL     1      -7.963   0.389   1.705  0.00  0.00    -0.048 C 
ATOM     46  C   UNL     1      -7.897   1.164   0.380  0.00  0.00    -0.049 C 
ATOM     47  C   UNL     1      -6.752   0.653  -0.513  0.00  0.00    -0.026 C 
ATOM     48  H   UNL     1      -6.652   1.603   2.944  0.00  0.00    +0.032 HD
ATOM     49  H   UNL     1      -6.652  -0.153   3.355  0.00  0.00    +0.032 HD
ATOM     50  H   UNL     1      -8.117  -0.693   1.494  0.00  0.00    +0.027 HD
ATOM     51  H   UNL     1      -8.829   0.748   2.302  0.00  0.00    +0.027 HD
ATOM     52  H   UNL     1      -7.747   2.246   0.593  0.00  0.00    +0.027 HD
ATOM     53  H   UNL     1      -8.861   1.054  -0.162  0.00  0.00    +0.027 HD
ATOM     54  H   UNL     1      -6.600   1.379  -1.339  0.00  0.00    +0.031 HD
ATOM     55  H   UNL     1      -7.039  -0.327  -0.949  0.00  0.00    +0.031 HD
BRANCH  40  56
ATOM     56  C   UNL     1      -3.910   0.369  -1.760  0.00  0.00    +0.342 C 
ATOM     57  O   UNL     1      -2.800   0.791  -2.186  0.00  0.00    -0.245 OA
BRANCH  56  58
ATOM     58  O   UNL     1      -4.886  -0.063  -2.663  0.00  0.00    -0.464 OA
BRANCH  58  59
ATOM     59  C   UNL     1      -4.690  -0.048  -4.071  0.00  0.00    +0.082 C 
ATOM     60  H   UNL     1      -3.827  -0.693  -4.342  0.00  0.00    +0.066 HD
ATOM     61  H   UNL     1      -5.601  -0.437  -4.570  0.00  0.00    +0.066 HD
ATOM     62  H   UNL     1      -4.505   0.991  -4.418  0.00  0.00    +0.066 HD
ENDBRANCH  58  59
ENDBRANCH  56  58
ENDBRANCH  40  56
ENDBRANCH  37  39
ENDBRANCH   3  35
BRANCH   2  63
ATOM     63  N   UNL     1       1.742  -0.456   3.138  0.00  0.00    -0.343 N 
ATOM     64  H   UNL     1       0.840  -0.439   3.658  0.00  0.00    +0.144 HD
ATOM     65  H   UNL     1       2.595  -0.747   3.664  0.00  0.00    +0.144 HD
ENDBRANCH   2  63
TORSDOF 9
