REMARK  Name = 
REMARK  11 active torsions:
REMARK  status: ('A' for Active; 'I' for Inactive)
REMARK    1  A    between atoms: C_1  and  C_2
REMARK    2  A    between atoms: C_2  and  C_3
REMARK    3  A    between atoms: C_2  and  C_8
REMARK    4  A    between atoms: C_3  and  C_4
REMARK    5  A    between atoms: C_4  and  C_5
REMARK    6  A    between atoms: C_12  and  C_32
REMARK    7  A    between atoms: C_13  and  O_29
REMARK    8  A    between atoms: C_20  and  C_28
REMARK    9  A    between atoms: C_23  and  O_25
REMARK   10  A    between atoms: O_25  and  C_26
REMARK   11  A    between atoms: O_29  and  C_30
REMARK                            x       y       z     vdW  Elec       q    Type
REMARK                         _______ _______ _______ _____ _____    ______ ____
ROOT
ATOM      1  C   UNL     1       3.119  -0.670  -0.451  0.00  0.00    -0.029 C 
ATOM      2  C   UNL     1       2.842  -2.106  -0.993  0.00  0.00    -0.049 C 
ATOM      3  C   UNL     1       1.430  -2.491  -0.573  0.00  0.00    -0.049 C 
ATOM      4  C   UNL     1       0.734  -1.154  -0.538  0.00  0.00    -0.029 C 
ATOM      5  C   UNL     1       1.716  -0.160   0.111  0.00  0.00    +0.011 C 
ATOM      6  C   UNL     1       1.208   1.293  -0.275  0.00  0.00    +0.109 C 
ATOM      7  C   UNL     1      -0.349   1.414  -0.476  0.00  0.00    -0.012 C 
ATOM      8  C   UNL     1      -1.155   0.358   0.319  0.00  0.00    -0.029 C 
ATOM      9  C   UNL     1      -0.743  -1.086  -0.068  0.00  0.00    -0.034 C 
ATOM     10  C   UNL     1      -1.164  -2.062   1.062  0.00  0.00    -0.049 C 
ATOM     11  C   UNL     1      -2.570  -1.722   1.644  0.00  0.00    -0.049 C 
ATOM     12  C   UNL     1      -3.394  -0.866   0.656  0.00  0.00    -0.032 C 
ATOM     13  C   UNL     1      -2.731   0.530   0.369  0.00  0.00    -0.026 C 
ATOM     14  C   UNL     1      -3.346   1.064  -0.963  0.00  0.00    -0.044 C 
ATOM     15  C   UNL     1      -4.790   0.565  -1.264  0.00  0.00    -0.015 C 
ATOM     16  C   UNL     1      -5.647   0.145  -0.034  0.00  0.00    +0.103 C 
ATOM     17  C   UNL     1      -4.883  -0.725   1.008  0.00  0.00    -0.012 C 
ATOM     18  H   UNL     1       3.828  -0.806   0.395  0.00  0.00    +0.031 HD
ATOM     19  H   UNL     1       2.870  -2.124  -2.104  0.00  0.00    +0.027 HD
ATOM     20  H   UNL     1       3.567  -2.849  -0.601  0.00  0.00    +0.027 HD
ATOM     21  H   UNL     1       1.438  -2.977   0.426  0.00  0.00    +0.027 HD
ATOM     22  H   UNL     1       0.958  -3.177  -1.311  0.00  0.00    +0.027 HD
ATOM     23  H   UNL     1       0.683  -0.856  -1.617  0.00  0.00    +0.031 HD
ATOM     24  H   UNL     1       1.626   1.561  -1.262  0.00  0.00    +0.074 HD
ATOM     25  H   UNL     1      -0.693   2.431  -0.200  0.00  0.00    +0.030 HD
ATOM     26  H   UNL     1      -0.568   1.292  -1.558  0.00  0.00    +0.030 HD
ATOM     27  H   UNL     1      -0.836   0.506   1.361  0.00  0.00    +0.031 HD
ATOM     28  H   UNL     1      -1.328  -1.373  -0.971  0.00  0.00    +0.031 HD
ATOM     29  H   UNL     1      -0.422  -2.045   1.887  0.00  0.00    +0.027 HD
ATOM     30  H   UNL     1      -1.181  -3.095   0.651  0.00  0.00    +0.027 HD
ATOM     31  H   UNL     1      -3.109  -2.670   1.863  0.00  0.00    +0.027 HD
ATOM     32  H   UNL     1      -2.455  -1.180   2.606  0.00  0.00    +0.027 HD
ATOM     33  H   UNL     1      -3.401  -1.462  -0.284  0.00  0.00    +0.031 HD
ATOM     34  H   UNL     1      -2.722   0.733  -1.819  0.00  0.00    +0.027 HD
ATOM     35  H   UNL     1      -3.330   2.176  -0.978  0.00  0.00    +0.027 HD
ATOM     36  H   UNL     1      -5.324   1.340  -1.853  0.00  0.00    +0.030 HD
ATOM     37  H   UNL     1      -4.716  -0.321  -1.934  0.00  0.00    +0.030 HD
ATOM     38  H   UNL     1      -6.490  -0.476  -0.415  0.00  0.00    +0.073 HD
ATOM     39  H   UNL     1      -4.995  -0.303   2.031  0.00  0.00    +0.030 HD
ATOM     40  H   UNL     1      -5.337  -1.740   1.039  0.00  0.00    +0.030 HD
ENDROOT
BRANCH   5  41
ATOM     41  C   UNL     1       1.807  -0.323   1.666  0.00  0.00    -0.056 C 
ATOM     42  H   UNL     1       0.927   0.000   2.235  0.00  0.00    +0.024 HD
ATOM     43  H   UNL     1       2.017  -1.374   1.953  0.00  0.00    +0.024 HD
ATOM     44  H   UNL     1       2.648   0.290   2.057  0.00  0.00    +0.024 HD
ENDBRANCH   5  41
BRANCH  13  45
ATOM     45  C   UNL     1      -3.037   1.557   1.504  0.00  0.00    -0.059 C 
ATOM     46  H   UNL     1      -4.088   1.889   1.517  0.00  0.00    +0.024 HD
ATOM     47  H   UNL     1      -2.429   2.477   1.376  0.00  0.00    +0.024 HD
ATOM     48  H   UNL     1      -2.803   1.134   2.503  0.00  0.00    +0.024 HD
ENDBRANCH  13  45
BRANCH   1  49
ATOM     49  C   UNL     1       3.905   0.226  -1.473  0.00  0.00    -0.040 C 
ATOM     50  H   UNL     1       3.236   0.420  -2.339  0.00  0.00    +0.030 HD
BRANCH  49  51
ATOM     51  C   UNL     1       4.320   1.593  -0.866  0.00  0.00    -0.062 C 
ATOM     52  H   UNL     1       4.344   1.556   0.244  0.00  0.00    +0.023 HD
ATOM     53  H   UNL     1       5.325   1.917  -1.212  0.00  0.00    +0.023 HD
ATOM     54  H   UNL     1       3.639   2.401  -1.190  0.00  0.00    +0.023 HD
ENDBRANCH  49  51
BRANCH  49  55
ATOM     55  C   UNL     1       5.168  -0.474  -2.067  0.00  0.00    -0.040 C 
ATOM     56  H   UNL     1       4.896  -1.385  -2.638  0.00  0.00    +0.027 HD
ATOM     57  H   UNL     1       5.592   0.209  -2.837  0.00  0.00    +0.027 HD
BRANCH  55  58
ATOM     58  C   UNL     1       6.295  -0.789  -1.055  0.00  0.00    +0.049 C 
ATOM     59  H   UNL     1       7.274  -0.708  -1.576  0.00  0.00    +0.038 HD
ATOM     60  H   UNL     1       6.316  -0.053  -0.224  0.00  0.00    +0.038 HD
BRANCH  58  61
ATOM     61  C   UNL     1       6.199  -2.173  -0.491  0.00  0.00    +0.356 C 
ATOM     62  O   UNL     1       6.346  -3.174  -1.241  0.00  0.00    -0.246 OA
ATOM     63  O   UNL     1       5.966  -2.359   0.866  0.00  0.00    -0.246 OA
ENDBRANCH  58  61
ENDBRANCH  55  58
ENDBRANCH  49  55
ENDBRANCH   1  49
BRANCH   6  64
ATOM     64  O   UNL     1       1.656   2.249   0.693  0.00  0.00    -0.463 OA
BRANCH  64  65
ATOM     65  C   UNL     1       1.689   3.630   0.469  0.00  0.00    +0.295 C 
ATOM     66  O   UNL     1       1.358   4.118  -0.644  0.00  0.00    -0.255 OA
ATOM     67  H   UNL     1       2.013   4.287   1.263  0.00  0.00    +0.151 HD
ENDBRANCH  64  65
ENDBRANCH   6  64
BRANCH  16  68
ATOM     68  O   UNL     1      -6.206   1.294   0.608  0.00  0.00    -0.464 OA
BRANCH  68  69
ATOM     69  C   UNL     1      -7.268   2.038   0.083  0.00  0.00    +0.295 C 
ATOM     70  O   UNL     1      -7.836   1.699  -0.989  0.00  0.00    -0.255 OA
ATOM     71  H   UNL     1      -7.611   2.916   0.613  0.00  0.00    +0.151 HD
ENDBRANCH  68  69
ENDBRANCH  16  68
TORSDOF 11
