REMARK  Name = 
REMARK  11 active torsions:
REMARK  status: ('A' for Active; 'I' for Inactive)
REMARK    1  A    between atoms: C_1  and  C_2
REMARK    2  A    between atoms: C_2  and  C_3
REMARK    3  A    between atoms: C_2  and  C_8
REMARK    4  A    between atoms: C_3  and  C_4
REMARK    5  A    between atoms: C_4  and  C_5
REMARK    6  A    between atoms: C_12  and  C_32
REMARK    7  A    between atoms: C_13  and  O_29
REMARK    8  A    between atoms: C_20  and  C_28
REMARK    9  A    between atoms: C_23  and  O_25
REMARK   10  A    between atoms: O_25  and  C_26
REMARK   11  A    between atoms: O_29  and  C_30
REMARK                            x       y       z     vdW  Elec       q    Type
REMARK                         _______ _______ _______ _____ _____    ______ ____
ROOT
ATOM      1  C   UNL     1      -3.179   0.795   1.026  0.00  0.00    -0.029 C 
ATOM      2  C   UNL     1      -2.854   1.464   2.397  0.00  0.00    -0.049 C 
ATOM      3  C   UNL     1      -1.342   1.354   2.631  0.00  0.00    -0.049 C 
ATOM      4  C   UNL     1      -0.784   0.856   1.306  0.00  0.00    -0.029 C 
ATOM      5  C   UNL     1      -1.874  -0.022   0.673  0.00  0.00    +0.011 C 
ATOM      6  C   UNL     1      -1.513  -0.247  -0.847  0.00  0.00    +0.109 C 
ATOM      7  C   UNL     1       0.024  -0.226  -1.165  0.00  0.00    -0.012 C 
ATOM      8  C   UNL     1       0.906  -0.629   0.036  0.00  0.00    -0.029 C 
ATOM      9  C   UNL     1       0.670   0.302   1.258  0.00  0.00    -0.034 C 
ATOM     10  C   UNL     1       1.199  -0.401   2.539  0.00  0.00    -0.049 C 
ATOM     11  C   UNL     1       2.578  -1.095   2.317  0.00  0.00    -0.049 C 
ATOM     12  C   UNL     1       3.274  -0.564   1.044  0.00  0.00    -0.032 C 
ATOM     13  C   UNL     1       2.447  -0.871  -0.255  0.00  0.00    -0.026 C 
ATOM     14  C   UNL     1       3.026   0.057  -1.359  0.00  0.00    -0.044 C 
ATOM     15  C   UNL     1       4.552  -0.134  -1.558  0.00  0.00    -0.015 C 
ATOM     16  C   UNL     1       5.375  -0.086  -0.243  0.00  0.00    +0.103 C 
ATOM     17  C   UNL     1       4.754  -0.934   0.890  0.00  0.00    -0.012 C 
ATOM     18  H   UNL     1      -4.004   0.086   1.251  0.00  0.00    +0.031 HD
ATOM     19  H   UNL     1      -3.389   0.936   3.217  0.00  0.00    +0.027 HD
ATOM     20  H   UNL     1      -3.171   2.528   2.446  0.00  0.00    +0.027 HD
ATOM     21  H   UNL     1      -1.142   0.635   3.453  0.00  0.00    +0.027 HD
ATOM     22  H   UNL     1      -0.903   2.339   2.902  0.00  0.00    +0.027 HD
ATOM     23  H   UNL     1      -0.738   1.771   0.672  0.00  0.00    +0.031 HD
ATOM     24  H   UNL     1      -1.913   0.583  -1.434  0.00  0.00    +0.074 HD
ATOM     25  H   UNL     1       0.311   0.803  -1.478  0.00  0.00    +0.030 HD
ATOM     26  H   UNL     1       0.237  -0.895  -2.025  0.00  0.00    +0.030 HD
ATOM     27  H   UNL     1       0.523  -1.618   0.328  0.00  0.00    +0.031 HD
ATOM     28  H   UNL     1       1.291   1.213   1.113  0.00  0.00    +0.031 HD
ATOM     29  H   UNL     1       1.305   0.360   3.342  0.00  0.00    +0.027 HD
ATOM     30  H   UNL     1       0.467  -1.159   2.889  0.00  0.00    +0.027 HD
ATOM     31  H   UNL     1       3.223  -0.909   3.203  0.00  0.00    +0.027 HD
ATOM     32  H   UNL     1       2.438  -2.194   2.240  0.00  0.00    +0.027 HD
ATOM     33  H   UNL     1       3.313   0.539   1.195  0.00  0.00    +0.031 HD
ATOM     34  H   UNL     1       2.830   1.119  -1.094  0.00  0.00    +0.027 HD
ATOM     35  H   UNL     1       2.526  -0.138  -2.332  0.00  0.00    +0.027 HD
ATOM     36  H   UNL     1       4.912   0.671  -2.235  0.00  0.00    +0.030 HD
ATOM     37  H   UNL     1       4.751  -1.087  -2.090  0.00  0.00    +0.030 HD
ATOM     38  H   UNL     1       5.413   0.970   0.109  0.00  0.00    +0.073 HD
ATOM     39  H   UNL     1       4.892  -2.019   0.707  0.00  0.00    +0.030 HD
ATOM     40  H   UNL     1       5.292  -0.700   1.835  0.00  0.00    +0.030 HD
ENDROOT
BRANCH   5  41
ATOM     41  C   UNL     1      -2.029  -1.398   1.414  0.00  0.00    -0.056 C 
ATOM     42  H   UNL     1      -2.164  -1.265   2.507  0.00  0.00    +0.024 HD
ATOM     43  H   UNL     1      -1.202  -2.107   1.281  0.00  0.00    +0.024 HD
ATOM     44  H   UNL     1      -2.933  -1.928   1.044  0.00  0.00    +0.024 HD
ENDBRANCH   5  41
BRANCH  13  45
ATOM     45  C   UNL     1       2.599  -2.358  -0.712  0.00  0.00    -0.059 C 
ATOM     46  H   UNL     1       3.630  -2.637  -0.998  0.00  0.00    +0.024 HD
ATOM     47  H   UNL     1       2.288  -3.059   0.090  0.00  0.00    +0.024 HD
ATOM     48  H   UNL     1       1.960  -2.553  -1.599  0.00  0.00    +0.024 HD
ENDBRANCH  13  45
BRANCH   1  49
ATOM     49  C   UNL     1      -3.816   1.837   0.025  0.00  0.00    -0.040 C 
ATOM     50  H   UNL     1      -4.631   2.321   0.612  0.00  0.00    +0.030 HD
BRANCH  49  51
ATOM     51  C   UNL     1      -2.896   3.004  -0.386  0.00  0.00    -0.062 C 
ATOM     52  H   UNL     1      -3.493   3.783  -0.906  0.00  0.00    +0.023 HD
ATOM     53  H   UNL     1      -2.435   3.486   0.499  0.00  0.00    +0.023 HD
ATOM     54  H   UNL     1      -2.091   2.692  -1.076  0.00  0.00    +0.023 HD
ENDBRANCH  49  51
BRANCH  49  55
ATOM     55  C   UNL     1      -4.560   1.257  -1.215  0.00  0.00    -0.040 C 
ATOM     56  H   UNL     1      -5.197   2.072  -1.627  0.00  0.00    +0.027 HD
ATOM     57  H   UNL     1      -3.873   0.987  -2.037  0.00  0.00    +0.027 HD
BRANCH  55  58
ATOM     58  C   UNL     1      -5.469   0.060  -0.906  0.00  0.00    +0.049 C 
ATOM     59  H   UNL     1      -4.853  -0.828  -0.649  0.00  0.00    +0.038 HD
ATOM     60  H   UNL     1      -6.132   0.297  -0.045  0.00  0.00    +0.038 HD
BRANCH  58  61
ATOM     61  C   UNL     1      -6.306  -0.285  -2.098  0.00  0.00    +0.356 C 
ATOM     62  O   UNL     1      -7.449   0.225  -2.238  0.00  0.00    -0.246 OA
ATOM     63  O   UNL     1      -5.803  -1.130  -3.079  0.00  0.00    -0.246 OA
ENDBRANCH  58  61
ENDBRANCH  55  58
ENDBRANCH  49  55
ENDBRANCH   1  49
BRANCH   6  64
ATOM     64  O   UNL     1      -2.109  -1.457  -1.329  0.00  0.00    -0.463 OA
BRANCH  64  65
ATOM     65  C   UNL     1      -2.349  -1.720  -2.681  0.00  0.00    +0.295 C 
ATOM     66  O   UNL     1      -2.064  -0.876  -3.572  0.00  0.00    -0.255 OA
ATOM     67  H   UNL     1      -2.793  -2.664  -2.966  0.00  0.00    +0.151 HD
ENDBRANCH  64  65
ENDBRANCH   6  64
BRANCH  16  68
ATOM     68  O   UNL     1       6.706  -0.545  -0.481  0.00  0.00    -0.464 OA
BRANCH  68  69
ATOM     69  C   UNL     1       7.670   0.201  -1.167  0.00  0.00    +0.295 C 
ATOM     70  O   UNL     1       7.423   1.365  -1.581  0.00  0.00    -0.255 OA
ATOM     71  H   UNL     1       8.649  -0.227  -1.337  0.00  0.00    +0.151 HD
ENDBRANCH  68  69
ENDBRANCH  16  68
TORSDOF 11
