REMARK  Name = 
REMARK  11 active torsions:
REMARK  status: ('A' for Active; 'I' for Inactive)
REMARK    1  A    between atoms: C_1  and  C_2
REMARK    2  A    between atoms: C_2  and  C_3
REMARK    3  A    between atoms: C_2  and  C_8
REMARK    4  A    between atoms: C_3  and  C_4
REMARK    5  A    between atoms: C_4  and  C_5
REMARK    6  A    between atoms: C_12  and  C_32
REMARK    7  A    between atoms: C_13  and  O_29
REMARK    8  A    between atoms: C_20  and  C_28
REMARK    9  A    between atoms: C_23  and  O_25
REMARK   10  A    between atoms: O_25  and  C_26
REMARK   11  A    between atoms: O_29  and  C_30
REMARK                            x       y       z     vdW  Elec       q    Type
REMARK                         _______ _______ _______ _____ _____    ______ ____
ROOT
ATOM      1  C   UNL     1       3.167   0.037   0.650  0.00  0.00    -0.029 C 
ATOM      2  C   UNL     1       3.053  -1.261   1.511  0.00  0.00    -0.049 C 
ATOM      3  C   UNL     1       1.627  -1.339   2.038  0.00  0.00    -0.049 C 
ATOM      4  C   UNL     1       0.856  -0.652   0.939  0.00  0.00    -0.029 C 
ATOM      5  C   UNL     1       1.672   0.590   0.533  0.00  0.00    +0.011 C 
ATOM      6  C   UNL     1       1.116   1.078  -0.882  0.00  0.00    +0.109 C 
ATOM      7  C   UNL     1      -0.374   0.668  -1.171  0.00  0.00    -0.012 C 
ATOM      8  C   UNL     1      -1.224   0.603   0.117  0.00  0.00    -0.029 C 
ATOM      9  C   UNL     1      -0.677  -0.472   1.091  0.00  0.00    -0.034 C 
ATOM     10  C   UNL     1      -1.222  -0.200   2.519  0.00  0.00    -0.049 C 
ATOM     11  C   UNL     1      -2.736   0.183   2.513  0.00  0.00    -0.049 C 
ATOM     12  C   UNL     1      -3.412  -0.228   1.185  0.00  0.00    -0.032 C 
ATOM     13  C   UNL     1      -2.798   0.521  -0.053  0.00  0.00    -0.026 C 
ATOM     14  C   UNL     1      -3.250  -0.280  -1.305  0.00  0.00    -0.044 C 
ATOM     15  C   UNL     1      -4.791  -0.425  -1.394  0.00  0.00    -0.015 C 
ATOM     16  C   UNL     1      -5.461  -0.925  -0.086  0.00  0.00    +0.103 C 
ATOM     17  C   UNL     1      -4.946  -0.197   1.176  0.00  0.00    -0.012 C 
ATOM     18  H   UNL     1       3.781   0.738   1.262  0.00  0.00    +0.031 HD
ATOM     19  H   UNL     1       3.787  -1.269   2.346  0.00  0.00    +0.027 HD
ATOM     20  H   UNL     1       3.196  -2.169   0.890  0.00  0.00    +0.027 HD
ATOM     21  H   UNL     1       1.533  -0.807   3.008  0.00  0.00    +0.027 HD
ATOM     22  H   UNL     1       1.297  -2.394   2.167  0.00  0.00    +0.027 HD
ATOM     23  H   UNL     1       0.951  -1.355   0.070  0.00  0.00    +0.031 HD
ATOM     24  H   UNL     1       1.704   0.609  -1.692  0.00  0.00    +0.074 HD
ATOM     25  H   UNL     1      -0.830   1.387  -1.883  0.00  0.00    +0.030 HD
ATOM     26  H   UNL     1      -0.393  -0.328  -1.666  0.00  0.00    +0.030 HD
ATOM     27  H   UNL     1      -1.047   1.575   0.604  0.00  0.00    +0.031 HD
ATOM     28  H   UNL     1      -1.086  -1.458   0.775  0.00  0.00    +0.031 HD
ATOM     29  H   UNL     1      -1.083  -1.117   3.132  0.00  0.00    +0.027 HD
ATOM     30  H   UNL     1      -0.645   0.614   3.005  0.00  0.00    +0.027 HD
ATOM     31  H   UNL     1      -2.848   1.277   2.670  0.00  0.00    +0.027 HD
ATOM     32  H   UNL     1      -3.240  -0.324   3.364  0.00  0.00    +0.027 HD
ATOM     33  H   UNL     1      -3.191  -1.316   1.094  0.00  0.00    +0.031 HD
ATOM     34  H   UNL     1      -2.896   0.218  -2.233  0.00  0.00    +0.027 HD
ATOM     35  H   UNL     1      -2.795  -1.295  -1.282  0.00  0.00    +0.027 HD
ATOM     36  H   UNL     1      -5.020  -1.143  -2.211  0.00  0.00    +0.030 HD
ATOM     37  H   UNL     1      -5.247   0.539  -1.703  0.00  0.00    +0.030 HD
ATOM     38  H   UNL     1      -5.231  -2.008   0.033  0.00  0.00    +0.073 HD
ATOM     39  H   UNL     1      -5.329  -0.735   2.071  0.00  0.00    +0.030 HD
ATOM     40  H   UNL     1      -5.338   0.838   1.237  0.00  0.00    +0.030 HD
ENDROOT
BRANCH   5  41
ATOM     41  C   UNL     1       1.567   1.740   1.591  0.00  0.00    -0.056 C 
ATOM     42  H   UNL     1       0.582   2.221   1.668  0.00  0.00    +0.024 HD
ATOM     43  H   UNL     1       2.283   2.550   1.333  0.00  0.00    +0.024 HD
ATOM     44  H   UNL     1       1.839   1.392   2.608  0.00  0.00    +0.024 HD
ENDBRANCH   5  41
BRANCH  13  45
ATOM     45  C   UNL     1      -3.322   1.989  -0.172  0.00  0.00    -0.059 C 
ATOM     46  H   UNL     1      -2.822   2.505  -1.019  0.00  0.00    +0.024 HD
ATOM     47  H   UNL     1      -4.409   2.064  -0.352  0.00  0.00    +0.024 HD
ATOM     48  H   UNL     1      -3.108   2.567   0.750  0.00  0.00    +0.024 HD
ENDBRANCH  13  45
BRANCH   1  49
ATOM     49  C   UNL     1       4.000  -0.156  -0.668  0.00  0.00    -0.040 C 
ATOM     50  H   UNL     1       3.389  -0.740  -1.389  0.00  0.00    +0.030 HD
BRANCH  49  51
ATOM     51  C   UNL     1       4.366   1.219  -1.278  0.00  0.00    -0.062 C 
ATOM     52  H   UNL     1       3.605   1.991  -1.086  0.00  0.00    +0.023 HD
ATOM     53  H   UNL     1       5.308   1.614  -0.840  0.00  0.00    +0.023 HD
ATOM     54  H   UNL     1       4.493   1.128  -2.378  0.00  0.00    +0.023 HD
ENDBRANCH  49  51
BRANCH  49  55
ATOM     55  C   UNL     1       5.320  -0.954  -0.436  0.00  0.00    -0.040 C 
ATOM     56  H   UNL     1       5.108  -1.955  -0.013  0.00  0.00    +0.027 HD
ATOM     57  H   UNL     1       5.960  -0.416   0.298  0.00  0.00    +0.027 HD
BRANCH  55  58
ATOM     58  C   UNL     1       6.113  -1.190  -1.733  0.00  0.00    +0.049 C 
ATOM     59  H   UNL     1       5.457  -1.665  -2.494  0.00  0.00    +0.038 HD
ATOM     60  H   UNL     1       6.484  -0.228  -2.145  0.00  0.00    +0.038 HD
BRANCH  58  61
ATOM     61  C   UNL     1       7.287  -2.083  -1.477  0.00  0.00    +0.356 C 
ATOM     62  O   UNL     1       8.383  -1.595  -1.096  0.00  0.00    -0.246 OA
ATOM     63  O   UNL     1       7.155  -3.459  -1.611  0.00  0.00    -0.246 OA
ENDBRANCH  58  61
ENDBRANCH  55  58
ENDBRANCH  49  55
ENDBRANCH   1  49
BRANCH   6  64
ATOM     64  O   UNL     1       1.238   2.501  -1.003  0.00  0.00    -0.463 OA
BRANCH  64  65
ATOM     65  C   UNL     1       1.233   3.182  -2.226  0.00  0.00    +0.295 C 
ATOM     66  O   UNL     1       1.162   2.560  -3.319  0.00  0.00    -0.255 OA
ATOM     67  H   UNL     1       1.300   4.261  -2.230  0.00  0.00    +0.151 HD
ENDBRANCH  64  65
ENDBRANCH   6  64
BRANCH  16  68
ATOM     68  O   UNL     1      -6.877  -0.756  -0.165  0.00  0.00    -0.464 OA
BRANCH  68  69
ATOM     69  C   UNL     1      -7.709  -1.557  -0.954  0.00  0.00    +0.295 C 
ATOM     70  O   UNL     1      -7.247  -2.523  -1.618  0.00  0.00    -0.255 OA
ATOM     71  H   UNL     1      -8.769  -1.348  -0.988  0.00  0.00    +0.151 HD
ENDBRANCH  68  69
ENDBRANCH  16  68
TORSDOF 11
