REMARK  Name = 
REMARK  11 active torsions:
REMARK  status: ('A' for Active; 'I' for Inactive)
REMARK    1  A    between atoms: C_1  and  C_2
REMARK    2  A    between atoms: C_2  and  C_3
REMARK    3  A    between atoms: C_2  and  C_8
REMARK    4  A    between atoms: C_3  and  C_4
REMARK    5  A    between atoms: C_4  and  C_5
REMARK    6  A    between atoms: C_12  and  C_32
REMARK    7  A    between atoms: C_13  and  O_29
REMARK    8  A    between atoms: C_20  and  C_28
REMARK    9  A    between atoms: C_23  and  O_25
REMARK   10  A    between atoms: O_25  and  C_26
REMARK   11  A    between atoms: O_29  and  C_30
REMARK                            x       y       z     vdW  Elec       q    Type
REMARK                         _______ _______ _______ _____ _____    ______ ____
ROOT
ATOM      1  C   UNL     1      -3.083   0.113   1.512  0.00  0.00    -0.029 C 
ATOM      2  C   UNL     1      -2.916   1.601   1.911  0.00  0.00    -0.049 C 
ATOM      3  C   UNL     1      -1.412   1.839   2.005  0.00  0.00    -0.049 C 
ATOM      4  C   UNL     1      -0.864   0.909   0.941  0.00  0.00    -0.029 C 
ATOM      5  C   UNL     1      -1.656  -0.413   1.051  0.00  0.00    +0.011 C 
ATOM      6  C   UNL     1      -1.505  -1.092  -0.344  0.00  0.00    +0.109 C 
ATOM      7  C   UNL     1      -0.018  -1.174  -0.861  0.00  0.00    -0.012 C 
ATOM      8  C   UNL     1       1.082  -0.533   0.056  0.00  0.00    -0.029 C 
ATOM      9  C   UNL     1       0.666   0.805   0.720  0.00  0.00    -0.034 C 
ATOM     10  C   UNL     1       1.549   1.055   1.975  0.00  0.00    -0.049 C 
ATOM     11  C   UNL     1       3.038   0.662   1.747  0.00  0.00    -0.049 C 
ATOM     12  C   UNL     1       3.380   0.624   0.242  0.00  0.00    -0.032 C 
ATOM     13  C   UNL     1       2.553  -0.462  -0.538  0.00  0.00    -0.026 C 
ATOM     14  C   UNL     1       2.603  -0.063  -2.046  0.00  0.00    -0.044 C 
ATOM     15  C   UNL     1       3.881   0.712  -2.484  0.00  0.00    -0.015 C 
ATOM     16  C   UNL     1       5.149   0.508  -1.611  0.00  0.00    +0.103 C 
ATOM     17  C   UNL     1       4.880   0.531  -0.075  0.00  0.00    -0.012 C 
ATOM     18  H   UNL     1      -3.275  -0.341   2.511  0.00  0.00    +0.031 HD
ATOM     19  H   UNL     1      -3.346   2.287   1.160  0.00  0.00    +0.027 HD
ATOM     20  H   UNL     1      -3.404   1.827   2.886  0.00  0.00    +0.027 HD
ATOM     21  H   UNL     1      -1.043   1.554   3.014  0.00  0.00    +0.027 HD
ATOM     22  H   UNL     1      -1.155   2.900   1.796  0.00  0.00    +0.027 HD
ATOM     23  H   UNL     1      -1.211   1.394  -0.005  0.00  0.00    +0.031 HD
ATOM     24  H   UNL     1      -2.021  -0.456  -1.082  0.00  0.00    +0.074 HD
ATOM     25  H   UNL     1       0.247  -2.239  -1.023  0.00  0.00    +0.030 HD
ATOM     26  H   UNL     1       0.009  -0.702  -1.863  0.00  0.00    +0.030 HD
ATOM     27  H   UNL     1       1.182  -1.232   0.901  0.00  0.00    +0.031 HD
ATOM     28  H   UNL     1       0.906   1.621   0.001  0.00  0.00    +0.031 HD
ATOM     29  H   UNL     1       1.163   0.479   2.841  0.00  0.00    +0.027 HD
ATOM     30  H   UNL     1       1.494   2.133   2.240  0.00  0.00    +0.027 HD
ATOM     31  H   UNL     1       3.239  -0.332   2.202  0.00  0.00    +0.027 HD
ATOM     32  H   UNL     1       3.691   1.399   2.264  0.00  0.00    +0.027 HD
ATOM     33  H   UNL     1       3.092   1.634  -0.130  0.00  0.00    +0.031 HD
ATOM     34  H   UNL     1       1.747   0.608  -2.276  0.00  0.00    +0.027 HD
ATOM     35  H   UNL     1       2.478  -0.963  -2.689  0.00  0.00    +0.027 HD
ATOM     36  H   UNL     1       4.117   0.459  -3.541  0.00  0.00    +0.030 HD
ATOM     37  H   UNL     1       3.644   1.799  -2.478  0.00  0.00    +0.030 HD
ATOM     38  H   UNL     1       5.830   1.356  -1.853  0.00  0.00    +0.073 HD
ATOM     39  H   UNL     1       5.393   1.413   0.368  0.00  0.00    +0.030 HD
ATOM     40  H   UNL     1       5.316  -0.364   0.419  0.00  0.00    +0.030 HD
ENDROOT
BRANCH   5  41
ATOM     41  C   UNL     1      -1.141  -1.391   2.165  0.00  0.00    -0.056 C 
ATOM     42  H   UNL     1      -0.399  -2.131   1.823  0.00  0.00    +0.024 HD
ATOM     43  H   UNL     1      -1.964  -2.050   2.515  0.00  0.00    +0.024 HD
ATOM     44  H   UNL     1      -0.754  -0.842   3.046  0.00  0.00    +0.024 HD
ENDBRANCH   5  41
BRANCH  13  45
ATOM     45  C   UNL     1       3.176  -1.885  -0.378  0.00  0.00    -0.059 C 
ATOM     46  H   UNL     1       3.336  -2.135   0.691  0.00  0.00    +0.024 HD
ATOM     47  H   UNL     1       2.507  -2.658  -0.811  0.00  0.00    +0.024 HD
ATOM     48  H   UNL     1       4.141  -1.997  -0.898  0.00  0.00    +0.024 HD
ENDBRANCH  13  45
BRANCH   1  49
ATOM     49  C   UNL     1      -4.410  -0.281   0.756  0.00  0.00    -0.040 C 
ATOM     50  H   UNL     1      -4.452  -1.393   0.806  0.00  0.00    +0.030 HD
BRANCH  49  51
ATOM     51  C   UNL     1      -5.639   0.202   1.554  0.00  0.00    -0.062 C 
ATOM     52  H   UNL     1      -6.573  -0.231   1.137  0.00  0.00    +0.023 HD
ATOM     53  H   UNL     1      -5.719   1.309   1.526  0.00  0.00    +0.023 HD
ATOM     54  H   UNL     1      -5.574  -0.122   2.615  0.00  0.00    +0.023 HD
ENDBRANCH  49  51
BRANCH  49  55
ATOM     55  C   UNL     1      -4.609   0.054  -0.753  0.00  0.00    -0.040 C 
ATOM     56  H   UNL     1      -5.676  -0.131  -1.012  0.00  0.00    +0.027 HD
ATOM     57  H   UNL     1      -4.078  -0.675  -1.391  0.00  0.00    +0.027 HD
BRANCH  55  58
ATOM     58  C   UNL     1      -4.275   1.487  -1.180  0.00  0.00    +0.049 C 
ATOM     59  H   UNL     1      -4.870   2.211  -0.584  0.00  0.00    +0.038 HD
ATOM     60  H   UNL     1      -3.199   1.690  -1.034  0.00  0.00    +0.038 HD
BRANCH  58  61
ATOM     61  C   UNL     1      -4.584   1.682  -2.631  0.00  0.00    +0.356 C 
ATOM     62  O   UNL     1      -5.715   2.106  -2.987  0.00  0.00    -0.246 OA
ATOM     63  O   UNL     1      -3.640   1.347  -3.593  0.00  0.00    -0.246 OA
ENDBRANCH  58  61
ENDBRANCH  55  58
ENDBRANCH  49  55
ENDBRANCH   1  49
BRANCH   6  64
ATOM     64  O   UNL     1      -2.117  -2.385  -0.330  0.00  0.00    -0.463 OA
BRANCH  64  65
ATOM     65  C   UNL     1      -2.432  -3.101  -1.489  0.00  0.00    +0.295 C 
ATOM     66  O   UNL     1      -2.204  -2.623  -2.632  0.00  0.00    -0.255 OA
ATOM     67  H   UNL     1      -2.882  -4.080  -1.401  0.00  0.00    +0.151 HD
ENDBRANCH  64  65
ENDBRANCH   6  64
BRANCH  16  68
ATOM     68  O   UNL     1       5.806  -0.698  -2.006  0.00  0.00    -0.464 OA
BRANCH  68  69
ATOM     69  C   UNL     1       7.130  -1.000  -1.669  0.00  0.00    +0.295 C 
ATOM     70  O   UNL     1       7.832  -0.195  -1.001  0.00  0.00    -0.255 OA
ATOM     71  H   UNL     1       7.557  -1.940  -1.991  0.00  0.00    +0.151 HD
ENDBRANCH  68  69
ENDBRANCH  16  68
TORSDOF 11
