REMARK  Name = 
REMARK  11 active torsions:
REMARK  status: ('A' for Active; 'I' for Inactive)
REMARK    1  A    between atoms: C_1  and  C_2
REMARK    2  A    between atoms: C_2  and  C_3
REMARK    3  A    between atoms: C_2  and  C_8
REMARK    4  A    between atoms: C_3  and  C_4
REMARK    5  A    between atoms: C_4  and  C_5
REMARK    6  A    between atoms: C_12  and  C_32
REMARK    7  A    between atoms: C_13  and  O_29
REMARK    8  A    between atoms: C_20  and  C_28
REMARK    9  A    between atoms: C_23  and  O_25
REMARK   10  A    between atoms: O_25  and  C_26
REMARK   11  A    between atoms: O_29  and  C_30
REMARK                            x       y       z     vdW  Elec       q    Type
REMARK                         _______ _______ _______ _____ _____    ______ ____
ROOT
ATOM      1  C   UNL     1      -3.202  -0.277  -0.288  0.00  0.00    -0.029 C 
ATOM      2  C   UNL     1      -3.284  -1.129   1.008  0.00  0.00    -0.049 C 
ATOM      3  C   UNL     1      -1.942  -1.830   1.171  0.00  0.00    -0.049 C 
ATOM      4  C   UNL     1      -0.998  -0.798   0.608  0.00  0.00    -0.029 C 
ATOM      5  C   UNL     1      -1.653  -0.251  -0.676  0.00  0.00    +0.011 C 
ATOM      6  C   UNL     1      -0.947   1.140  -0.987  0.00  0.00    +0.109 C 
ATOM      7  C   UNL     1       0.537   1.249  -0.470  0.00  0.00    -0.012 C 
ATOM      8  C   UNL     1       1.257  -0.121  -0.401  0.00  0.00    -0.029 C 
ATOM      9  C   UNL     1       0.520  -1.102   0.548  0.00  0.00    -0.034 C 
ATOM     10  C   UNL     1       0.932  -2.559   0.208  0.00  0.00    -0.049 C 
ATOM     11  C   UNL     1       2.455  -2.683  -0.102  0.00  0.00    -0.049 C 
ATOM     12  C   UNL     1       3.247  -1.490   0.484  0.00  0.00    -0.032 C 
ATOM     13  C   UNL     1       2.821  -0.114  -0.145  0.00  0.00    -0.026 C 
ATOM     14  C   UNL     1       3.290   1.004   0.837  0.00  0.00    -0.044 C 
ATOM     15  C   UNL     1       4.539   0.643   1.694  0.00  0.00    -0.015 C 
ATOM     16  C   UNL     1       5.499  -0.428   1.097  0.00  0.00    +0.103 C 
ATOM     17  C   UNL     1       4.774  -1.664   0.486  0.00  0.00    -0.012 C 
ATOM     18  H   UNL     1      -3.766  -0.868  -1.047  0.00  0.00    +0.031 HD
ATOM     19  H   UNL     1      -3.400  -0.470   1.893  0.00  0.00    +0.027 HD
ATOM     20  H   UNL     1      -4.115  -1.867   0.972  0.00  0.00    +0.027 HD
ATOM     21  H   UNL     1      -1.723  -2.044   2.240  0.00  0.00    +0.027 HD
ATOM     22  H   UNL     1      -1.916  -2.776   0.590  0.00  0.00    +0.027 HD
ATOM     23  H   UNL     1      -1.060   0.042   1.349  0.00  0.00    +0.031 HD
ATOM     24  H   UNL     1      -1.491   1.940  -0.450  0.00  0.00    +0.074 HD
ATOM     25  H   UNL     1       0.520   1.701   0.544  0.00  0.00    +0.030 HD
ATOM     26  H   UNL     1       1.117   1.944  -1.112  0.00  0.00    +0.030 HD
ATOM     27  H   UNL     1       1.151  -0.531  -1.417  0.00  0.00    +0.031 HD
ATOM     28  H   UNL     1       0.878  -0.905   1.584  0.00  0.00    +0.031 HD
ATOM     29  H   UNL     1       0.683  -3.208   1.075  0.00  0.00    +0.027 HD
ATOM     30  H   UNL     1       0.357  -2.935  -0.663  0.00  0.00    +0.027 HD
ATOM     31  H   UNL     1       2.836  -3.635   0.328  0.00  0.00    +0.027 HD
ATOM     32  H   UNL     1       2.610  -2.732  -1.200  0.00  0.00    +0.027 HD
ATOM     33  H   UNL     1       2.981  -1.491   1.566  0.00  0.00    +0.031 HD
ATOM     34  H   UNL     1       2.476   1.232   1.558  0.00  0.00    +0.027 HD
ATOM     35  H   UNL     1       3.485   1.949   0.283  0.00  0.00    +0.027 HD
ATOM     36  H   UNL     1       5.101   1.573   1.924  0.00  0.00    +0.030 HD
ATOM     37  H   UNL     1       4.183   0.258   2.676  0.00  0.00    +0.030 HD
ATOM     38  H   UNL     1       6.132  -0.806   1.932  0.00  0.00    +0.073 HD
ATOM     39  H   UNL     1       5.027  -2.567   1.084  0.00  0.00    +0.030 HD
ATOM     40  H   UNL     1       5.136  -1.863  -0.546  0.00  0.00    +0.030 HD
ENDROOT
BRANCH   5  41
ATOM     41  C   UNL     1      -1.507  -1.232  -1.890  0.00  0.00    -0.056 C 
ATOM     42  H   UNL     1      -1.847  -2.255  -1.630  0.00  0.00    +0.024 HD
ATOM     43  H   UNL     1      -2.147  -0.885  -2.729  0.00  0.00    +0.024 HD
ATOM     44  H   UNL     1      -0.498  -1.320  -2.313  0.00  0.00    +0.024 HD
ENDBRANCH   5  41
BRANCH  13  45
ATOM     45  C   UNL     1       3.503   0.122  -1.529  0.00  0.00    -0.059 C 
ATOM     46  H   UNL     1       4.585   0.321  -1.451  0.00  0.00    +0.024 HD
ATOM     47  H   UNL     1       3.065   1.007  -2.036  0.00  0.00    +0.024 HD
ATOM     48  H   UNL     1       3.367  -0.752  -2.199  0.00  0.00    +0.024 HD
ENDBRANCH  13  45
BRANCH   1  49
ATOM     49  C   UNL     1      -3.991   1.082  -0.206  0.00  0.00    -0.040 C 
ATOM     50  H   UNL     1      -3.502   1.738   0.546  0.00  0.00    +0.030 HD
BRANCH  49  51
ATOM     51  C   UNL     1      -3.959   1.807  -1.583  0.00  0.00    -0.062 C 
ATOM     52  H   UNL     1      -3.552   1.159  -2.387  0.00  0.00    +0.023 HD
ATOM     53  H   UNL     1      -4.958   2.127  -1.945  0.00  0.00    +0.023 HD
ATOM     54  H   UNL     1      -3.349   2.731  -1.519  0.00  0.00    +0.023 HD
ENDBRANCH  49  51
BRANCH  49  55
ATOM     55  C   UNL     1      -5.489   0.904   0.216  0.00  0.00    -0.040 C 
ATOM     56  H   UNL     1      -5.934   0.030  -0.309  0.00  0.00    +0.027 HD
ATOM     57  H   UNL     1      -6.061   1.800  -0.114  0.00  0.00    +0.027 HD
BRANCH  55  58
ATOM     58  C   UNL     1      -5.739   0.778   1.732  0.00  0.00    +0.049 C 
ATOM     59  H   UNL     1      -5.599  -0.270   2.061  0.00  0.00    +0.038 HD
ATOM     60  H   UNL     1      -5.041   1.431   2.299  0.00  0.00    +0.038 HD
BRANCH  58  61
ATOM     61  C   UNL     1      -7.148   1.155   2.074  0.00  0.00    +0.356 C 
ATOM     62  O   UNL     1      -7.420   2.329   2.439  0.00  0.00    -0.246 OA
ATOM     63  O   UNL     1      -8.169   0.222   1.941  0.00  0.00    -0.246 OA
ENDBRANCH  58  61
ENDBRANCH  55  58
ENDBRANCH  49  55
ENDBRANCH   1  49
BRANCH   6  64
ATOM     64  O   UNL     1      -0.988   1.418  -2.391  0.00  0.00    -0.463 OA
BRANCH  64  65
ATOM     65  C   UNL     1      -0.804   2.692  -2.939  0.00  0.00    +0.295 C 
ATOM     66  O   UNL     1      -0.626   3.699  -2.203  0.00  0.00    -0.255 OA
ATOM     67  H   UNL     1      -0.822   2.814  -4.013  0.00  0.00    +0.151 HD
ENDBRANCH  64  65
ENDBRANCH   6  64
BRANCH  16  68
ATOM     68  O   UNL     1       6.364   0.159   0.122  0.00  0.00    -0.464 OA
BRANCH  68  69
ATOM     69  C   UNL     1       7.442   0.992   0.441  0.00  0.00    +0.295 C 
ATOM     70  O   UNL     1       7.745   1.240   1.638  0.00  0.00    -0.255 OA
ATOM     71  H   UNL     1       8.030   1.425  -0.357  0.00  0.00    +0.151 HD
ENDBRANCH  68  69
ENDBRANCH  16  68
TORSDOF 11
