REMARK  Name = 
REMARK  11 active torsions:
REMARK  status: ('A' for Active; 'I' for Inactive)
REMARK    1  A    between atoms: C_1  and  C_2
REMARK    2  A    between atoms: C_2  and  C_3
REMARK    3  A    between atoms: C_2  and  C_8
REMARK    4  A    between atoms: C_3  and  C_4
REMARK    5  A    between atoms: C_4  and  C_5
REMARK    6  A    between atoms: C_12  and  C_32
REMARK    7  A    between atoms: C_13  and  O_29
REMARK    8  A    between atoms: C_20  and  C_28
REMARK    9  A    between atoms: C_23  and  O_25
REMARK   10  A    between atoms: O_25  and  C_26
REMARK   11  A    between atoms: O_29  and  C_30
REMARK                            x       y       z     vdW  Elec       q    Type
REMARK                         _______ _______ _______ _____ _____    ______ ____
ROOT
ATOM      1  C   UNL     1      -3.138  -0.636  -0.174  0.00  0.00    -0.029 C 
ATOM      2  C   UNL     1      -2.958  -2.126   0.252  0.00  0.00    -0.049 C 
ATOM      3  C   UNL     1      -1.488  -2.480   0.075  0.00  0.00    -0.049 C 
ATOM      4  C   UNL     1      -0.812  -1.154   0.323  0.00  0.00    -0.029 C 
ATOM      5  C   UNL     1      -1.659  -0.084  -0.391  0.00  0.00    +0.011 C 
ATOM      6  C   UNL     1      -1.250   1.312   0.243  0.00  0.00    +0.109 C 
ATOM      7  C   UNL     1       0.237   1.392   0.755  0.00  0.00    -0.012 C 
ATOM      8  C   UNL     1       1.194   0.420   0.022  0.00  0.00    -0.029 C 
ATOM      9  C   UNL     1       0.728  -1.052   0.161  0.00  0.00    -0.034 C 
ATOM     10  C   UNL     1       1.371  -1.904  -0.966  0.00  0.00    -0.049 C 
ATOM     11  C   UNL     1       2.859  -1.520  -1.222  0.00  0.00    -0.049 C 
ATOM     12  C   UNL     1       3.467  -0.786  -0.004  0.00  0.00    -0.032 C 
ATOM     13  C   UNL     1       2.746   0.578   0.300  0.00  0.00    -0.026 C 
ATOM     14  C   UNL     1       3.084   0.954   1.777  0.00  0.00    -0.044 C 
ATOM     15  C   UNL     1       4.448   0.411   2.296  0.00  0.00    -0.015 C 
ATOM     16  C   UNL     1       5.530   0.119   1.222  0.00  0.00    +0.103 C 
ATOM     17  C   UNL     1       4.993  -0.622  -0.043  0.00  0.00    -0.012 C 
ATOM     18  H   UNL     1      -3.668  -0.671  -1.151  0.00  0.00    +0.031 HD
ATOM     19  H   UNL     1      -3.203  -2.265   1.327  0.00  0.00    +0.027 HD
ATOM     20  H   UNL     1      -3.586  -2.813  -0.353  0.00  0.00    +0.027 HD
ATOM     21  H   UNL     1      -1.296  -2.853  -0.953  0.00  0.00    +0.027 HD
ATOM     22  H   UNL     1      -1.163  -3.247   0.812  0.00  0.00    +0.027 HD
ATOM     23  H   UNL     1      -0.976  -0.977   1.418  0.00  0.00    +0.031 HD
ATOM     24  H   UNL     1      -1.855   1.475   1.153  0.00  0.00    +0.074 HD
ATOM     25  H   UNL     1       0.241   1.150   1.839  0.00  0.00    +0.030 HD
ATOM     26  H   UNL     1       0.618   2.429   0.664  0.00  0.00    +0.030 HD
ATOM     27  H   UNL     1       1.082   0.685  -1.040  0.00  0.00    +0.031 HD
ATOM     28  H   UNL     1       1.129  -1.444   1.124  0.00  0.00    +0.031 HD
ATOM     29  H   UNL     1       0.804  -1.789  -1.913  0.00  0.00    +0.027 HD
ATOM     30  H   UNL     1       1.317  -2.976  -0.674  0.00  0.00    +0.027 HD
ATOM     31  H   UNL     1       3.441  -2.443  -1.433  0.00  0.00    +0.027 HD
ATOM     32  H   UNL     1       2.929  -0.873  -2.122  0.00  0.00    +0.027 HD
ATOM     33  H   UNL     1       3.297  -1.482   0.849  0.00  0.00    +0.031 HD
ATOM     34  H   UNL     1       2.309   0.537   2.453  0.00  0.00    +0.027 HD
ATOM     35  H   UNL     1       3.051   2.058   1.912  0.00  0.00    +0.027 HD
ATOM     36  H   UNL     1       4.256  -0.538   2.844  0.00  0.00    +0.030 HD
ATOM     37  H   UNL     1       4.859   1.118   3.050  0.00  0.00    +0.030 HD
ATOM     38  H   UNL     1       6.282  -0.540   1.712  0.00  0.00    +0.073 HD
ATOM     39  H   UNL     1       5.292  -0.090  -0.972  0.00  0.00    +0.030 HD
ATOM     40  H   UNL     1       5.459  -1.631  -0.096  0.00  0.00    +0.030 HD
ENDROOT
BRANCH   5  41
ATOM     41  C   UNL     1      -1.442  -0.075  -1.943  0.00  0.00    -0.056 C 
ATOM     42  H   UNL     1      -1.582  -1.086  -2.379  0.00  0.00    +0.024 HD
ATOM     43  H   UNL     1      -0.471   0.298  -2.291  0.00  0.00    +0.024 HD
ATOM     44  H   UNL     1      -2.197   0.586  -2.421  0.00  0.00    +0.024 HD
ENDBRANCH   5  41
BRANCH  13  45
ATOM     45  C   UNL     1       3.259   1.720  -0.633  0.00  0.00    -0.059 C 
ATOM     46  H   UNL     1       4.291   2.035  -0.405  0.00  0.00    +0.024 HD
ATOM     47  H   UNL     1       2.630   2.628  -0.523  0.00  0.00    +0.024 HD
ATOM     48  H   UNL     1       3.225   1.413  -1.699  0.00  0.00    +0.024 HD
ENDBRANCH  13  45
BRANCH   1  49
ATOM     49  C   UNL     1      -4.118   0.152   0.767  0.00  0.00    -0.040 C 
ATOM     50  H   UNL     1      -3.633   0.242   1.764  0.00  0.00    +0.030 HD
BRANCH  49  51
ATOM     51  C   UNL     1      -4.420   1.581   0.244  0.00  0.00    -0.062 C 
ATOM     52  H   UNL     1      -4.227   1.666  -0.846  0.00  0.00    +0.023 HD
ATOM     53  H   UNL     1      -5.476   1.878   0.422  0.00  0.00    +0.023 HD
ATOM     54  H   UNL     1      -3.823   2.341   0.782  0.00  0.00    +0.023 HD
ENDBRANCH  49  51
BRANCH  49  55
ATOM     55  C   UNL     1      -5.466  -0.594   1.024  0.00  0.00    -0.040 C 
ATOM     56  H   UNL     1      -5.301  -1.566   1.533  0.00  0.00    +0.027 HD
ATOM     57  H   UNL     1      -6.038   0.005   1.766  0.00  0.00    +0.027 HD
BRANCH  55  58
ATOM     58  C   UNL     1      -6.371  -0.783  -0.217  0.00  0.00    +0.049 C 
ATOM     59  H   UNL     1      -6.236   0.038  -0.951  0.00  0.00    +0.038 HD
ATOM     60  H   UNL     1      -7.433  -0.748   0.108  0.00  0.00    +0.038 HD
BRANCH  58  61
ATOM     61  C   UNL     1      -6.152  -2.099  -0.899  0.00  0.00    +0.356 C 
ATOM     62  O   UNL     1      -6.433  -3.174  -0.307  0.00  0.00    -0.246 OA
ATOM     63  O   UNL     1      -5.657  -2.138  -2.197  0.00  0.00    -0.246 OA
ENDBRANCH  58  61
ENDBRANCH  55  58
ENDBRANCH  49  55
ENDBRANCH   1  49
BRANCH   6  64
ATOM     64  O   UNL     1      -1.510   2.373  -0.684  0.00  0.00    -0.463 OA
BRANCH  64  65
ATOM     65  C   UNL     1      -1.600   3.721  -0.320  0.00  0.00    +0.295 C 
ATOM     66  O   UNL     1      -1.497   4.081   0.883  0.00  0.00    -0.255 OA
ATOM     67  H   UNL     1      -1.769   4.465  -1.086  0.00  0.00    +0.151 HD
ENDBRANCH  64  65
ENDBRANCH   6  64
BRANCH  16  68
ATOM     68  O   UNL     1       6.188   1.337   0.869  0.00  0.00    -0.464 OA
BRANCH  68  69
ATOM     69  C   UNL     1       7.414   1.385   0.199  0.00  0.00    +0.295 C 
ATOM     70  O   UNL     1       8.025   0.330  -0.119  0.00  0.00    -0.255 OA
ATOM     71  H   UNL     1       7.846   2.345  -0.048  0.00  0.00    +0.151 HD
ENDBRANCH  68  69
ENDBRANCH  16  68
TORSDOF 11
