REMARK  Name = 
REMARK  11 active torsions:
REMARK  status: ('A' for Active; 'I' for Inactive)
REMARK    1  A    between atoms: C_1  and  C_2
REMARK    2  A    between atoms: C_2  and  C_3
REMARK    3  A    between atoms: C_2  and  C_8
REMARK    4  A    between atoms: C_3  and  C_4
REMARK    5  A    between atoms: C_4  and  C_5
REMARK    6  A    between atoms: C_12  and  C_32
REMARK    7  A    between atoms: C_13  and  O_29
REMARK    8  A    between atoms: C_20  and  C_28
REMARK    9  A    between atoms: C_23  and  O_25
REMARK   10  A    between atoms: O_25  and  C_26
REMARK   11  A    between atoms: O_29  and  C_30
REMARK                            x       y       z     vdW  Elec       q    Type
REMARK                         _______ _______ _______ _____ _____    ______ ____
ROOT
ATOM      1  C   UNL     1       3.133  -0.304   0.259  0.00  0.00    -0.029 C 
ATOM      2  C   UNL     1       3.321   1.167   0.741  0.00  0.00    -0.049 C 
ATOM      3  C   UNL     1       2.104   1.957   0.282  0.00  0.00    -0.049 C 
ATOM      4  C   UNL     1       1.023   0.904   0.307  0.00  0.00    -0.029 C 
ATOM      5  C   UNL     1       1.637  -0.377  -0.291  0.00  0.00    +0.011 C 
ATOM      6  C   UNL     1       0.698  -1.585   0.142  0.00  0.00    +0.109 C 
ATOM      7  C   UNL     1      -0.805  -1.185   0.390  0.00  0.00    -0.012 C 
ATOM      8  C   UNL     1      -1.256   0.021  -0.468  0.00  0.00    -0.029 C 
ATOM      9  C   UNL     1      -0.407   1.281  -0.159  0.00  0.00    -0.034 C 
ATOM     10  C   UNL     1      -0.520   2.281  -1.340  0.00  0.00    -0.049 C 
ATOM     11  C   UNL     1      -1.971   2.369  -1.904  0.00  0.00    -0.049 C 
ATOM     12  C   UNL     1      -3.006   1.863  -0.872  0.00  0.00    -0.032 C 
ATOM     13  C   UNL     1      -2.806   0.347  -0.510  0.00  0.00    -0.026 C 
ATOM     14  C   UNL     1      -3.537   0.099   0.847  0.00  0.00    -0.044 C 
ATOM     15  C   UNL     1      -4.745   1.041   1.123  0.00  0.00    -0.015 C 
ATOM     16  C   UNL     1      -5.449   1.643  -0.129  0.00  0.00    +0.103 C 
ATOM     17  C   UNL     1      -4.470   2.176  -1.216  0.00  0.00    -0.012 C 
ATOM     18  H   UNL     1       3.841  -0.417  -0.593  0.00  0.00    +0.031 HD
ATOM     19  H   UNL     1       4.254   1.622   0.343  0.00  0.00    +0.027 HD
ATOM     20  H   UNL     1       3.335   1.226   1.850  0.00  0.00    +0.027 HD
ATOM     21  H   UNL     1       1.873   2.793   0.979  0.00  0.00    +0.027 HD
ATOM     22  H   UNL     1       2.261   2.364  -0.739  0.00  0.00    +0.027 HD
ATOM     23  H   UNL     1       0.895   0.685   1.399  0.00  0.00    +0.031 HD
ATOM     24  H   UNL     1       1.040  -1.980   1.116  0.00  0.00    +0.074 HD
ATOM     25  H   UNL     1      -1.470  -2.052   0.197  0.00  0.00    +0.030 HD
ATOM     26  H   UNL     1      -0.924  -0.932   1.465  0.00  0.00    +0.030 HD
ATOM     27  H   UNL     1      -1.011  -0.276  -1.500  0.00  0.00    +0.031 HD
ATOM     28  H   UNL     1      -0.858   1.783   0.727  0.00  0.00    +0.031 HD
ATOM     29  H   UNL     1      -0.208   3.287  -0.983  0.00  0.00    +0.027 HD
ATOM     30  H   UNL     1       0.167   1.994  -2.163  0.00  0.00    +0.027 HD
ATOM     31  H   UNL     1      -2.192   3.424  -2.174  0.00  0.00    +0.027 HD
ATOM     32  H   UNL     1      -2.046   1.769  -2.836  0.00  0.00    +0.027 HD
ATOM     33  H   UNL     1      -2.810   2.479   0.035  0.00  0.00    +0.031 HD
ATOM     34  H   UNL     1      -2.826   0.255   1.685  0.00  0.00    +0.027 HD
ATOM     35  H   UNL     1      -3.872  -0.959   0.919  0.00  0.00    +0.027 HD
ATOM     36  H   UNL     1      -5.485   0.505   1.754  0.00  0.00    +0.030 HD
ATOM     37  H   UNL     1      -4.385   1.893   1.742  0.00  0.00    +0.030 HD
ATOM     38  H   UNL     1      -6.051   2.514   0.218  0.00  0.00    +0.073 HD
ATOM     39  H   UNL     1      -4.724   1.760  -2.215  0.00  0.00    +0.030 HD
ATOM     40  H   UNL     1      -4.586   3.280  -1.301  0.00  0.00    +0.030 HD
ENDROOT
BRANCH   5  41
ATOM     41  C   UNL     1       1.762  -0.309  -1.852  0.00  0.00    -0.056 C 
ATOM     42  H   UNL     1       2.357  -1.174  -2.216  0.00  0.00    +0.024 HD
ATOM     43  H   UNL     1       2.296   0.606  -2.181  0.00  0.00    +0.024 HD
ATOM     44  H   UNL     1       0.815  -0.349  -2.407  0.00  0.00    +0.024 HD
ENDBRANCH   5  41
BRANCH  13  45
ATOM     45  C   UNL     1      -3.434  -0.590  -1.590  0.00  0.00    -0.059 C 
ATOM     46  H   UNL     1      -3.139  -1.645  -1.412  0.00  0.00    +0.024 HD
ATOM     47  H   UNL     1      -3.095  -0.312  -2.610  0.00  0.00    +0.024 HD
ATOM     48  H   UNL     1      -4.536  -0.578  -1.587  0.00  0.00    +0.024 HD
ENDBRANCH  13  45
BRANCH   1  49
ATOM     49  C   UNL     1       3.620  -1.367   1.312  0.00  0.00    -0.040 C 
ATOM     50  H   UNL     1       2.886  -1.402   2.145  0.00  0.00    +0.030 HD
BRANCH  49  51
ATOM     51  C   UNL     1       3.730  -2.781   0.692  0.00  0.00    -0.062 C 
ATOM     52  H   UNL     1       4.336  -3.454   1.336  0.00  0.00    +0.023 HD
ATOM     53  H   UNL     1       2.751  -3.273   0.597  0.00  0.00    +0.023 HD
ATOM     54  H   UNL     1       4.203  -2.743  -0.312  0.00  0.00    +0.023 HD
ENDBRANCH  49  51
BRANCH  49  55
ATOM     55  C   UNL     1       4.986  -1.014   1.979  0.00  0.00    -0.040 C 
ATOM     56  H   UNL     1       4.906  -0.083   2.575  0.00  0.00    +0.027 HD
ATOM     57  H   UNL     1       5.231  -1.806   2.722  0.00  0.00    +0.027 HD
BRANCH  55  58
ATOM     58  C   UNL     1       6.164  -0.887   0.996  0.00  0.00    +0.049 C 
ATOM     59  H   UNL     1       6.303  -1.834   0.434  0.00  0.00    +0.038 HD
ATOM     60  H   UNL     1       5.979  -0.075   0.264  0.00  0.00    +0.038 HD
BRANCH  58  61
ATOM     61  C   UNL     1       7.428  -0.585   1.737  0.00  0.00    +0.356 C 
ATOM     62  O   UNL     1       7.755   0.608   1.974  0.00  0.00    -0.246 OA
ATOM     63  O   UNL     1       8.221  -1.623   2.211  0.00  0.00    -0.246 OA
ENDBRANCH  58  61
ENDBRANCH  55  58
ENDBRANCH  49  55
ENDBRANCH   1  49
BRANCH   6  64
ATOM     64  O   UNL     1       0.761  -2.637  -0.829  0.00  0.00    -0.463 OA
BRANCH  64  65
ATOM     65  C   UNL     1       0.345  -3.951  -0.587  0.00  0.00    +0.295 C 
ATOM     66  O   UNL     1      -0.068  -4.306   0.550  0.00  0.00    -0.255 OA
ATOM     67  H   UNL     1       0.389  -4.677  -1.387  0.00  0.00    +0.151 HD
ENDBRANCH  64  65
ENDBRANCH   6  64
BRANCH  16  68
ATOM     68  O   UNL     1      -6.348   0.694  -0.708  0.00  0.00    -0.464 OA
BRANCH  68  69
ATOM     69  C   UNL     1      -7.579   0.345  -0.144  0.00  0.00    +0.295 C 
ATOM     70  O   UNL     1      -7.997   0.898   0.908  0.00  0.00    -0.255 OA
ATOM     71  H   UNL     1      -8.187  -0.409  -0.625  0.00  0.00    +0.151 HD
ENDBRANCH  68  69
ENDBRANCH  16  68
TORSDOF 11
