REMARK  Name = 
REMARK  11 active torsions:
REMARK  status: ('A' for Active; 'I' for Inactive)
REMARK    1  A    between atoms: C_1  and  C_2
REMARK    2  A    between atoms: C_2  and  C_3
REMARK    3  A    between atoms: C_2  and  C_8
REMARK    4  A    between atoms: C_3  and  C_4
REMARK    5  A    between atoms: C_4  and  C_5
REMARK    6  A    between atoms: C_12  and  C_32
REMARK    7  A    between atoms: C_13  and  O_29
REMARK    8  A    between atoms: C_20  and  C_28
REMARK    9  A    between atoms: C_23  and  O_25
REMARK   10  A    between atoms: O_25  and  C_26
REMARK   11  A    between atoms: O_29  and  C_30
REMARK                            x       y       z     vdW  Elec       q    Type
REMARK                         _______ _______ _______ _____ _____    ______ ____
ROOT
ATOM      1  C   UNL     1      -3.202   0.164  -0.352  0.00  0.00    -0.029 C 
ATOM      2  C   UNL     1      -3.150  -0.576  -1.726  0.00  0.00    -0.049 C 
ATOM      3  C   UNL     1      -1.762  -0.356  -2.314  0.00  0.00    -0.049 C 
ATOM      4  C   UNL     1      -0.917  -0.240  -1.069  0.00  0.00    -0.029 C 
ATOM      5  C   UNL     1      -1.702   0.643  -0.080  0.00  0.00    +0.011 C 
ATOM      6  C   UNL     1      -1.051   0.428   1.362  0.00  0.00    +0.109 C 
ATOM      7  C   UNL     1       0.455  -0.025   1.334  0.00  0.00    -0.012 C 
ATOM      8  C   UNL     1       1.216   0.546   0.117  0.00  0.00    -0.029 C 
ATOM      9  C   UNL     1       0.602   0.035  -1.212  0.00  0.00    -0.034 C 
ATOM     10  C   UNL     1       1.050   0.960  -2.375  0.00  0.00    -0.049 C 
ATOM     11  C   UNL     1       2.562   1.341  -2.282  0.00  0.00    -0.049 C 
ATOM     12  C   UNL     1       3.325   0.377  -1.345  0.00  0.00    -0.032 C 
ATOM     13  C   UNL     1       2.798   0.441   0.134  0.00  0.00    -0.026 C 
ATOM     14  C   UNL     1       3.331  -0.838   0.835  0.00  0.00    -0.044 C 
ATOM     15  C   UNL     1       4.875  -0.960   0.753  0.00  0.00    -0.015 C 
ATOM     16  C   UNL     1       5.451  -0.778  -0.672  0.00  0.00    +0.103 C 
ATOM     17  C   UNL     1       4.856   0.444  -1.417  0.00  0.00    -0.012 C 
ATOM     18  H   UNL     1      -3.855   1.051  -0.526  0.00  0.00    +0.031 HD
ATOM     19  H   UNL     1      -3.252  -1.673  -1.597  0.00  0.00    +0.027 HD
ATOM     20  H   UNL     1      -3.938  -0.215  -2.422  0.00  0.00    +0.027 HD
ATOM     21  H   UNL     1      -1.444  -1.218  -2.941  0.00  0.00    +0.027 HD
ATOM     22  H   UNL     1      -1.732   0.571  -2.924  0.00  0.00    +0.027 HD
ATOM     23  H   UNL     1      -0.956  -1.270  -0.628  0.00  0.00    +0.031 HD
ATOM     24  H   UNL     1      -1.585  -0.383   1.891  0.00  0.00    +0.074 HD
ATOM     25  H   UNL     1       0.505  -1.135   1.303  0.00  0.00    +0.030 HD
ATOM     26  H   UNL     1       0.959   0.292   2.271  0.00  0.00    +0.030 HD
ATOM     27  H   UNL     1       1.008   1.627   0.154  0.00  0.00    +0.031 HD
ATOM     28  H   UNL     1       1.030  -0.971  -1.420  0.00  0.00    +0.031 HD
ATOM     29  H   UNL     1       0.868   0.433  -3.337  0.00  0.00    +0.027 HD
ATOM     30  H   UNL     1       0.444   1.890  -2.387  0.00  0.00    +0.027 HD
ATOM     31  H   UNL     1       2.665   2.384  -1.915  0.00  0.00    +0.027 HD
ATOM     32  H   UNL     1       3.006   1.306  -3.300  0.00  0.00    +0.027 HD
ATOM     33  H   UNL     1       3.108  -0.633  -1.761  0.00  0.00    +0.031 HD
ATOM     34  H   UNL     1       3.041  -0.843   1.907  0.00  0.00    +0.027 HD
ATOM     35  H   UNL     1       2.874  -1.738   0.367  0.00  0.00    +0.027 HD
ATOM     36  H   UNL     1       5.350  -0.236   1.446  0.00  0.00    +0.030 HD
ATOM     37  H   UNL     1       5.165  -1.967   1.123  0.00  0.00    +0.030 HD
ATOM     38  H   UNL     1       5.207  -1.700  -1.247  0.00  0.00    +0.073 HD
ATOM     39  H   UNL     1       5.249   1.397  -1.009  0.00  0.00    +0.030 HD
ATOM     40  H   UNL     1       5.169   0.400  -2.482  0.00  0.00    +0.030 HD
ENDROOT
BRANCH   5  41
ATOM     41  C   UNL     1      -1.667   2.157  -0.480  0.00  0.00    -0.056 C 
ATOM     42  H   UNL     1      -2.362   2.730   0.171  0.00  0.00    +0.024 HD
ATOM     43  H   UNL     1      -0.688   2.647  -0.381  0.00  0.00    +0.024 HD
ATOM     44  H   UNL     1      -2.007   2.317  -1.523  0.00  0.00    +0.024 HD
ENDBRANCH   5  41
BRANCH  13  45
ATOM     45  C   UNL     1       3.330   1.698   0.894  0.00  0.00    -0.059 C 
ATOM     46  H   UNL     1       3.053   2.634   0.367  0.00  0.00    +0.024 HD
ATOM     47  H   UNL     1       4.428   1.716   1.019  0.00  0.00    +0.024 HD
ATOM     48  H   UNL     1       2.893   1.742   1.914  0.00  0.00    +0.024 HD
ENDBRANCH  13  45
BRANCH   1  49
ATOM     49  C   UNL     1      -3.945  -0.648   0.769  0.00  0.00    -0.040 C 
ATOM     50  H   UNL     1      -3.288  -1.483   1.094  0.00  0.00    +0.030 HD
BRANCH  49  51
ATOM     51  C   UNL     1      -4.266   0.270   1.974  0.00  0.00    -0.062 C 
ATOM     52  H   UNL     1      -4.319  -0.329   2.908  0.00  0.00    +0.023 HD
ATOM     53  H   UNL     1      -5.235   0.796   1.829  0.00  0.00    +0.023 HD
ATOM     54  H   UNL     1      -3.519   1.065   2.120  0.00  0.00    +0.023 HD
ENDBRANCH  49  51
BRANCH  49  55
ATOM     55  C   UNL     1      -5.279  -1.284   0.270  0.00  0.00    -0.040 C 
ATOM     56  H   UNL     1      -5.966  -0.484  -0.086  0.00  0.00    +0.027 HD
ATOM     57  H   UNL     1      -5.099  -1.964  -0.585  0.00  0.00    +0.027 HD
BRANCH  55  58
ATOM     58  C   UNL     1      -5.984  -2.123   1.350  0.00  0.00    +0.049 C 
ATOM     59  H   UNL     1      -6.324  -1.477   2.187  0.00  0.00    +0.038 HD
ATOM     60  H   UNL     1      -5.278  -2.878   1.759  0.00  0.00    +0.038 HD
BRANCH  58  61
ATOM     61  C   UNL     1      -7.173  -2.827   0.777  0.00  0.00    +0.356 C 
ATOM     62  O   UNL     1      -8.292  -2.251   0.736  0.00  0.00    -0.246 OA
ATOM     63  O   UNL     1      -7.036  -4.102   0.242  0.00  0.00    -0.246 OA
ENDBRANCH  58  61
ENDBRANCH  55  58
ENDBRANCH  49  55
ENDBRANCH   1  49
BRANCH   6  64
ATOM     64  O   UNL     1      -1.162   1.624   2.143  0.00  0.00    -0.463 OA
BRANCH  64  65
ATOM     65  C   UNL     1      -1.074   1.654   3.539  0.00  0.00    +0.295 C 
ATOM     66  O   UNL     1      -0.930   0.595   4.207  0.00  0.00    -0.255 OA
ATOM     67  H   UNL     1      -1.138   2.603   4.054  0.00  0.00    +0.151 HD
ENDBRANCH  64  65
ENDBRANCH   6  64
BRANCH  16  68
ATOM     68  O   UNL     1       6.871  -0.651  -0.580  0.00  0.00    -0.464 OA
BRANCH  68  69
ATOM     69  C   UNL     1       7.736  -0.841  -1.662  0.00  0.00    +0.295 C 
ATOM     70  O   UNL     1       7.302  -1.190  -2.792  0.00  0.00    -0.255 OA
ATOM     71  H   UNL     1       8.798  -0.693  -1.523  0.00  0.00    +0.151 HD
ENDBRANCH  68  69
ENDBRANCH  16  68
TORSDOF 11
