REMARK  Name = 
REMARK  11 active torsions:
REMARK  status: ('A' for Active; 'I' for Inactive)
REMARK    1  A    between atoms: C_1  and  C_2
REMARK    2  A    between atoms: C_2  and  C_3
REMARK    3  A    between atoms: C_2  and  C_8
REMARK    4  A    between atoms: C_3  and  C_4
REMARK    5  A    between atoms: C_4  and  C_5
REMARK    6  A    between atoms: C_12  and  C_32
REMARK    7  A    between atoms: C_13  and  O_29
REMARK    8  A    between atoms: C_20  and  C_28
REMARK    9  A    between atoms: C_23  and  O_25
REMARK   10  A    between atoms: O_25  and  C_26
REMARK   11  A    between atoms: O_29  and  C_30
REMARK                            x       y       z     vdW  Elec       q    Type
REMARK                         _______ _______ _______ _____ _____    ______ ____
ROOT
ATOM      1  C   UNL     1      -3.268  -0.755  -0.147  0.00  0.00    -0.029 C 
ATOM      2  C   UNL     1      -3.144  -2.309  -0.097  0.00  0.00    -0.049 C 
ATOM      3  C   UNL     1      -1.654  -2.667  -0.040  0.00  0.00    -0.049 C 
ATOM      4  C   UNL     1      -0.950  -1.339   0.194  0.00  0.00    -0.029 C 
ATOM      5  C   UNL     1      -1.807  -0.259  -0.489  0.00  0.00    +0.011 C 
ATOM      6  C   UNL     1      -1.344   1.158   0.035  0.00  0.00    +0.109 C 
ATOM      7  C   UNL     1       0.156   1.222   0.490  0.00  0.00    -0.012 C 
ATOM      8  C   UNL     1       1.061   0.214  -0.255  0.00  0.00    -0.029 C 
ATOM      9  C   UNL     1       0.587  -1.249  -0.040  0.00  0.00    -0.034 C 
ATOM     10  C   UNL     1       1.178  -2.146  -1.162  0.00  0.00    -0.049 C 
ATOM     11  C   UNL     1       2.655  -1.785  -1.499  0.00  0.00    -0.049 C 
ATOM     12  C   UNL     1       3.322  -1.013  -0.338  0.00  0.00    -0.032 C 
ATOM     13  C   UNL     1       2.626   0.367  -0.056  0.00  0.00    -0.026 C 
ATOM     14  C   UNL     1       3.036   0.798   1.388  0.00  0.00    -0.044 C 
ATOM     15  C   UNL     1       4.418   0.262   1.866  0.00  0.00    -0.015 C 
ATOM     16  C   UNL     1       5.446  -0.081   0.755  0.00  0.00    +0.103 C 
ATOM     17  C   UNL     1       4.846  -0.865  -0.454  0.00  0.00    -0.012 C 
ATOM     18  H   UNL     1      -3.928  -0.553  -1.014  0.00  0.00    +0.031 HD
ATOM     19  H   UNL     1      -3.593  -2.758  -1.011  0.00  0.00    +0.027 HD
ATOM     20  H   UNL     1      -3.675  -2.758   0.770  0.00  0.00    +0.027 HD
ATOM     21  H   UNL     1      -1.344  -3.129  -1.000  0.00  0.00    +0.027 HD
ATOM     22  H   UNL     1      -1.442  -3.380   0.786  0.00  0.00    +0.027 HD
ATOM     23  H   UNL     1      -1.061  -1.161   1.288  0.00  0.00    +0.031 HD
ATOM     24  H   UNL     1      -1.903   1.406   0.939  0.00  0.00    +0.074 HD
ATOM     25  H   UNL     1       0.547   2.252   0.359  0.00  0.00    +0.030 HD
ATOM     26  H   UNL     1       0.195   1.004   1.579  0.00  0.00    +0.030 HD
ATOM     27  H   UNL     1       0.896   0.442  -1.320  0.00  0.00    +0.031 HD
ATOM     28  H   UNL     1       1.029  -1.607   0.917  0.00  0.00    +0.031 HD
ATOM     29  H   UNL     1       0.571  -2.061  -2.087  0.00  0.00    +0.027 HD
ATOM     30  H   UNL     1       1.134  -3.206  -0.829  0.00  0.00    +0.027 HD
ATOM     31  H   UNL     1       2.689  -1.173  -2.425  0.00  0.00    +0.027 HD
ATOM     32  H   UNL     1       3.220  -2.721  -1.703  0.00  0.00    +0.027 HD
ATOM     33  H   UNL     1       3.185  -1.675   0.547  0.00  0.00    +0.031 HD
ATOM     34  H   UNL     1       3.020   1.907   1.481  0.00  0.00    +0.027 HD
ATOM     35  H   UNL     1       2.290   0.416   2.115  0.00  0.00    +0.027 HD
ATOM     36  H   UNL     1       4.869   0.992   2.573  0.00  0.00    +0.030 HD
ATOM     37  H   UNL     1       4.243  -0.665   2.457  0.00  0.00    +0.030 HD
ATOM     38  H   UNL     1       6.216  -0.727   1.235  0.00  0.00    +0.073 HD
ATOM     39  H   UNL     1       5.106  -0.374  -1.416  0.00  0.00    +0.030 HD
ATOM     40  H   UNL     1       5.301  -1.880  -0.487  0.00  0.00    +0.030 HD
ENDROOT
BRANCH   5  41
ATOM     41  C   UNL     1      -1.696  -0.327  -2.053  0.00  0.00    -0.056 C 
ATOM     42  H   UNL     1      -2.449   0.346  -2.517  0.00  0.00    +0.024 HD
ATOM     43  H   UNL     1      -1.902  -1.347  -2.438  0.00  0.00    +0.024 HD
ATOM     44  H   UNL     1      -0.728  -0.018  -2.471  0.00  0.00    +0.024 HD
ENDBRANCH   5  41
BRANCH  13  45
ATOM     45  C   UNL     1       3.103   1.467  -1.056  0.00  0.00    -0.059 C 
ATOM     46  H   UNL     1       3.015   1.120  -2.107  0.00  0.00    +0.024 HD
ATOM     47  H   UNL     1       4.147   1.780  -0.891  0.00  0.00    +0.024 HD
ATOM     48  H   UNL     1       2.488   2.385  -0.952  0.00  0.00    +0.024 HD
ENDBRANCH  13  45
BRANCH   1  49
ATOM     49  C   UNL     1      -4.073  -0.216   1.098  0.00  0.00    -0.040 C 
ATOM     50  H   UNL     1      -4.979  -0.863   1.151  0.00  0.00    +0.030 HD
BRANCH  49  51
ATOM     51  C   UNL     1      -3.388  -0.426   2.464  0.00  0.00    -0.062 C 
ATOM     52  H   UNL     1      -3.057  -1.476   2.590  0.00  0.00    +0.023 HD
ATOM     53  H   UNL     1      -4.112  -0.214   3.280  0.00  0.00    +0.023 HD
ATOM     54  H   UNL     1      -2.518   0.238   2.618  0.00  0.00    +0.023 HD
ENDBRANCH  49  51
BRANCH  49  55
ATOM     55  C   UNL     1      -4.659   1.225   0.983  0.00  0.00    -0.040 C 
ATOM     56  H   UNL     1      -5.359   1.380   1.834  0.00  0.00    +0.027 HD
ATOM     57  H   UNL     1      -3.889   2.005   1.109  0.00  0.00    +0.027 HD
BRANCH  55  58
ATOM     58  C   UNL     1      -5.434   1.530  -0.311  0.00  0.00    +0.049 C 
ATOM     59  H   UNL     1      -4.756   1.504  -1.190  0.00  0.00    +0.038 HD
ATOM     60  H   UNL     1      -5.824   2.569  -0.251  0.00  0.00    +0.038 HD
BRANCH  58  61
ATOM     61  C   UNL     1      -6.595   0.605  -0.511  0.00  0.00    +0.356 C 
ATOM     62  O   UNL     1      -7.601   0.681   0.242  0.00  0.00    -0.246 OA
ATOM     63  O   UNL     1      -6.561  -0.351  -1.519  0.00  0.00    -0.246 OA
ENDBRANCH  58  61
ENDBRANCH  55  58
ENDBRANCH  49  55
ENDBRANCH   1  49
BRANCH   6  64
ATOM     64  O   UNL     1      -1.616   2.168  -0.942  0.00  0.00    -0.463 OA
BRANCH  64  65
ATOM     65  C   UNL     1      -1.728   3.530  -0.643  0.00  0.00    +0.295 C 
ATOM     66  O   UNL     1      -1.615   3.950   0.540  0.00  0.00    -0.255 OA
ATOM     67  H   UNL     1      -1.919   4.233  -1.441  0.00  0.00    +0.151 HD
ENDBRANCH  64  65
ENDBRANCH   6  64
BRANCH  16  68
ATOM     68  O   UNL     1       6.095   1.117   0.325  0.00  0.00    -0.464 OA
BRANCH  68  69
ATOM     69  C   UNL     1       7.289   1.130  -0.402  0.00  0.00    +0.295 C 
ATOM     70  O   UNL     1       7.878   0.058  -0.706  0.00  0.00    -0.255 OA
ATOM     71  H   UNL     1       7.715   2.076  -0.706  0.00  0.00    +0.151 HD
ENDBRANCH  68  69
ENDBRANCH  16  68
TORSDOF 11
