REMARK  Name = 
REMARK  11 active torsions:
REMARK  status: ('A' for Active; 'I' for Inactive)
REMARK    1  A    between atoms: C_1  and  C_2
REMARK    2  A    between atoms: C_2  and  C_3
REMARK    3  A    between atoms: C_2  and  C_8
REMARK    4  A    between atoms: C_3  and  C_4
REMARK    5  A    between atoms: C_4  and  C_5
REMARK    6  A    between atoms: C_12  and  C_32
REMARK    7  A    between atoms: C_13  and  O_29
REMARK    8  A    between atoms: C_20  and  C_28
REMARK    9  A    between atoms: C_23  and  O_25
REMARK   10  A    between atoms: O_25  and  C_26
REMARK   11  A    between atoms: O_29  and  C_30
REMARK                            x       y       z     vdW  Elec       q    Type
REMARK                         _______ _______ _______ _____ _____    ______ ____
ROOT
ATOM      1  C   UNL     1      -3.203  -0.043   0.705  0.00  0.00    -0.029 C 
ATOM      2  C   UNL     1      -3.130   1.409   1.275  0.00  0.00    -0.049 C 
ATOM      3  C   UNL     1      -1.683   1.677   1.668  0.00  0.00    -0.049 C 
ATOM      4  C   UNL     1      -0.932   0.817   0.681  0.00  0.00    -0.029 C 
ATOM      5  C   UNL     1      -1.683  -0.525   0.599  0.00  0.00    +0.011 C 
ATOM      6  C   UNL     1      -1.178  -1.268  -0.721  0.00  0.00    +0.109 C 
ATOM      7  C   UNL     1       0.262  -0.848  -1.192  0.00  0.00    -0.012 C 
ATOM      8  C   UNL     1       1.179  -0.466  -0.009  0.00  0.00    -0.029 C 
ATOM      9  C   UNL     1       0.616   0.759   0.757  0.00  0.00    -0.034 C 
ATOM     10  C   UNL     1       1.260   0.825   2.168  0.00  0.00    -0.049 C 
ATOM     11  C   UNL     1       2.794   0.534   2.134  0.00  0.00    -0.049 C 
ATOM     12  C   UNL     1       3.362   0.692   0.704  0.00  0.00    -0.032 C 
ATOM     13  C   UNL     1       2.731  -0.335  -0.304  0.00  0.00    -0.026 C 
ATOM     14  C   UNL     1       3.053   0.207  -1.724  0.00  0.00    -0.044 C 
ATOM     15  C   UNL     1       4.573   0.413  -1.950  0.00  0.00    -0.015 C 
ATOM     16  C   UNL     1       5.278   1.219  -0.832  0.00  0.00    +0.103 C 
ATOM     17  C   UNL     1       4.891   0.748   0.593  0.00  0.00    -0.012 C 
ATOM     18  H   UNL     1      -3.733  -0.636   1.486  0.00  0.00    +0.031 HD
ATOM     19  H   UNL     1      -3.810   1.547   2.143  0.00  0.00    +0.027 HD
ATOM     20  H   UNL     1      -3.375   2.160   0.495  0.00  0.00    +0.027 HD
ATOM     21  H   UNL     1      -1.494   1.366   2.717  0.00  0.00    +0.027 HD
ATOM     22  H   UNL     1      -1.421   2.751   1.552  0.00  0.00    +0.027 HD
ATOM     23  H   UNL     1      -1.127   1.316  -0.304  0.00  0.00    +0.031 HD
ATOM     24  H   UNL     1      -1.841  -1.014  -1.567  0.00  0.00    +0.074 HD
ATOM     25  H   UNL     1       0.184   0.020  -1.883  0.00  0.00    +0.030 HD
ATOM     26  H   UNL     1       0.724  -1.675  -1.770  0.00  0.00    +0.030 HD
ATOM     27  H   UNL     1       1.097  -1.321   0.680  0.00  0.00    +0.031 HD
ATOM     28  H   UNL     1       0.937   1.677   0.215  0.00  0.00    +0.031 HD
ATOM     29  H   UNL     1       1.094   1.841   2.586  0.00  0.00    +0.027 HD
ATOM     30  H   UNL     1       0.770   0.101   2.851  0.00  0.00    +0.027 HD
ATOM     31  H   UNL     1       2.990  -0.493   2.506  0.00  0.00    +0.027 HD
ATOM     32  H   UNL     1       3.310   1.237   2.823  0.00  0.00    +0.027 HD
ATOM     33  H   UNL     1       3.061   1.722   0.406  0.00  0.00    +0.031 HD
ATOM     34  H   UNL     1       2.532   1.177  -1.881  0.00  0.00    +0.027 HD
ATOM     35  H   UNL     1       2.681  -0.495  -2.501  0.00  0.00    +0.027 HD
ATOM     36  H   UNL     1       4.712   0.952  -2.912  0.00  0.00    +0.030 HD
ATOM     37  H   UNL     1       5.075  -0.569  -2.079  0.00  0.00    +0.030 HD
ATOM     38  H   UNL     1       4.972   2.284  -0.951  0.00  0.00    +0.073 HD
ATOM     39  H   UNL     1       5.280   1.483   1.330  0.00  0.00    +0.030 HD
ATOM     40  H   UNL     1       5.360  -0.227   0.838  0.00  0.00    +0.030 HD
ENDROOT
BRANCH   5  41
ATOM     41  C   UNL     1      -1.439  -1.419   1.862  0.00  0.00    -0.056 C 
ATOM     42  H   UNL     1      -2.110  -2.304   1.827  0.00  0.00    +0.024 HD
ATOM     43  H   UNL     1      -0.420  -1.816   1.968  0.00  0.00    +0.024 HD
ATOM     44  H   UNL     1      -1.677  -0.880   2.802  0.00  0.00    +0.024 HD
ENDBRANCH   5  41
BRANCH  13  45
ATOM     45  C   UNL     1       3.346  -1.763  -0.152  0.00  0.00    -0.059 C 
ATOM     46  H   UNL     1       4.425  -1.815  -0.385  0.00  0.00    +0.024 HD
ATOM     47  H   UNL     1       2.838  -2.473  -0.838  0.00  0.00    +0.024 HD
ATOM     48  H   UNL     1       3.224  -2.145   0.882  0.00  0.00    +0.024 HD
ENDBRANCH  13  45
BRANCH   1  49
ATOM     49  C   UNL     1      -4.118  -0.170  -0.566  0.00  0.00    -0.040 C 
ATOM     50  H   UNL     1      -3.582   0.286  -1.425  0.00  0.00    +0.030 HD
BRANCH  49  51
ATOM     51  C   UNL     1      -4.425  -1.658  -0.861  0.00  0.00    -0.062 C 
ATOM     52  H   UNL     1      -3.609  -2.333  -0.562  0.00  0.00    +0.023 HD
ATOM     53  H   UNL     1      -4.610  -1.803  -1.947  0.00  0.00    +0.023 HD
ATOM     54  H   UNL     1      -5.318  -2.003  -0.296  0.00  0.00    +0.023 HD
ENDBRANCH  49  51
BRANCH  49  55
ATOM     55  C   UNL     1      -5.476   0.588  -0.408  0.00  0.00    -0.040 C 
ATOM     56  H   UNL     1      -6.024   0.177   0.468  0.00  0.00    +0.027 HD
ATOM     57  H   UNL     1      -5.324   1.665  -0.205  0.00  0.00    +0.027 HD
BRANCH  55  58
ATOM     58  C   UNL     1      -6.393   0.508  -1.642  0.00  0.00    +0.049 C 
ATOM     59  H   UNL     1      -7.339   1.045  -1.415  0.00  0.00    +0.038 HD
ATOM     60  H   UNL     1      -6.671  -0.544  -1.865  0.00  0.00    +0.038 HD
BRANCH  58  61
ATOM     61  C   UNL     1      -5.767   1.147  -2.844  0.00  0.00    +0.356 C 
ATOM     62  O   UNL     1      -5.271   0.434  -3.756  0.00  0.00    -0.246 OA
ATOM     63  O   UNL     1      -5.702   2.531  -2.941  0.00  0.00    -0.246 OA
ENDBRANCH  58  61
ENDBRANCH  55  58
ENDBRANCH  49  55
ENDBRANCH   1  49
BRANCH   6  64
ATOM     64  O   UNL     1      -1.209  -2.689  -0.537  0.00  0.00    -0.463 OA
BRANCH  64  65
ATOM     65  C   UNL     1      -1.230  -3.611  -1.589  0.00  0.00    +0.295 C 
ATOM     66  O   UNL     1      -1.264  -3.231  -2.790  0.00  0.00    -0.255 OA
ATOM     67  H   UNL     1      -1.223  -4.669  -1.367  0.00  0.00    +0.151 HD
ENDBRANCH  64  65
ENDBRANCH   6  64
BRANCH  16  68
ATOM     68  O   UNL     1       6.691   1.118  -1.014  0.00  0.00    -0.464 OA
BRANCH  68  69
ATOM     69  C   UNL     1       7.610   1.997  -0.432  0.00  0.00    +0.295 C 
ATOM     70  O   UNL     1       7.228   2.977   0.261  0.00  0.00    -0.255 OA
ATOM     71  H   UNL     1       8.668   1.836  -0.589  0.00  0.00    +0.151 HD
ENDBRANCH  68  69
ENDBRANCH  16  68
TORSDOF 11
