REMARK  Name = 
REMARK  5 active torsions:
REMARK  status: ('A' for Active; 'I' for Inactive)
REMARK    1  A    between atoms: C_8  and  C_10
REMARK    2  A    between atoms: C_14  and  N_16
REMARK    3  A    between atoms: N_16  and  C_17
REMARK    4  A    between atoms: C_17  and  N_19
REMARK    5  A    between atoms: C_20  and  C_22
REMARK                            x       y       z     vdW  Elec       q    Type
REMARK                         _______ _______ _______ _____ _____    ______ ____
ROOT
ATOM      1  N   UNL     1       0.429  -1.481   2.688  0.00  0.00    -0.295 N 
ATOM      2  H   UNL     1       1.123  -1.694   3.441  0.00  0.00    +0.154 HD
ENDROOT
BRANCH   1   7
ATOM      3  C   UNL     1       2.538  -1.278  -0.398  0.00  0.00    +0.009 A 
ATOM      4  C   UNL     1       1.711  -1.928  -1.329  0.00  0.00    -0.051 A 
ATOM      5  C   UNL     1       0.476  -2.449  -0.938  0.00  0.00    -0.041 A 
ATOM      6  C   UNL     1       0.039  -2.321   0.384  0.00  0.00    +0.062 A 
ATOM      7  C   UNL     1       0.844  -1.647   1.324  0.00  0.00    +0.052 A 
ATOM      8  C   UNL     1       2.095  -1.151   0.931  0.00  0.00    -0.029 A 
ATOM      9 CL   UNL     1      -1.482  -3.080   0.838  0.00  0.00    -0.082 Cl
ATOM     10  H   UNL     1       2.018  -2.046  -2.360  0.00  0.00    +0.062 HD
ATOM     11  H   UNL     1      -0.138  -2.966  -1.665  0.00  0.00    +0.063 HD
ATOM     12  H   UNL     1       2.713  -0.649   1.666  0.00  0.00    +0.064 HD
BRANCH   3  20
ATOM     13  C   UNL     1       7.999   1.351  -0.675  0.00  0.00    -0.060 A 
ATOM     14  C   UNL     1       8.071   1.032  -2.046  0.00  0.00    -0.061 A 
ATOM     15  C   UNL     1       7.017   0.348  -2.673  0.00  0.00    -0.046 A 
ATOM     16  C   UNL     1       5.912   0.001  -1.900  0.00  0.00    +0.040 A 
ATOM     17  C   UNL     1       5.829   0.309  -0.552  0.00  0.00    +0.079 A 
ATOM     18  C   UNL     1       6.871   0.988   0.081  0.00  0.00    -0.035 A 
ATOM     19  N   UNL     1       4.689  -0.095   0.065  0.00  0.00    -0.239 NA
ATOM     20  C   UNL     1       3.855  -0.731  -0.798  0.00  0.00    +0.110 A 
ATOM     21  S   UNL     1       4.518  -0.807  -2.362  0.00  0.00    -0.067 S 
ATOM     22  H   UNL     1       8.817   1.878  -0.202  0.00  0.00    +0.062 HD
ATOM     23  H   UNL     1       8.944   1.316  -2.620  0.00  0.00    +0.062 HD
ATOM     24  H   UNL     1       7.063   0.099  -3.725  0.00  0.00    +0.063 HD
ATOM     25  H   UNL     1       6.813   1.232   1.134  0.00  0.00    +0.064 HD
ENDBRANCH   3  20
ENDBRANCH   1   7
BRANCH   1  26
ATOM     26  C   UNL     1      -0.815  -0.867   3.057  0.00  0.00    +0.141 C 
ATOM     27  S   UNL     1      -1.256  -0.866   4.637  0.00  0.00    -0.018 S 
BRANCH  26  28
ATOM     28  N   UNL     1      -1.546  -0.086   2.096  0.00  0.00    -0.264 N 
ATOM     29  C   UNL     1      -2.978   0.031   2.081  0.00  0.00    +0.250 C 
ATOM     30  O   UNL     1      -3.683  -0.625   2.896  0.00  0.00    -0.270 OA
ATOM     31  H   UNL     1      -1.016   0.329   1.297  0.00  0.00    +0.157 HD
BRANCH  29  32
ATOM     32  C   UNL     1      -3.633   0.928   1.104  0.00  0.00    +0.045 A 
ATOM     33  C   UNL     1      -3.163   2.246   1.011  0.00  0.00    -0.049 A 
ATOM     34  C   UNL     1      -3.769   3.159   0.152  0.00  0.00    -0.060 A 
ATOM     35  C   UNL     1      -4.853   2.776  -0.633  0.00  0.00    -0.053 A 
ATOM     36  C   UNL     1      -5.340   1.456  -0.587  0.00  0.00    +0.001 A 
ATOM     37  C   UNL     1      -4.717   0.513   0.283  0.00  0.00    -0.004 A 
ATOM     38  C   UNL     1      -5.175  -0.822   0.277  0.00  0.00    -0.053 A 
ATOM     39  C   UNL     1      -6.244  -1.204  -0.533  0.00  0.00    -0.060 A 
ATOM     40  C   UNL     1      -6.869  -0.274  -1.358  0.00  0.00    -0.043 A 
ATOM     41  C   UNL     1      -6.426   1.050  -1.397  0.00  0.00    +0.049 A 
ATOM     42 CL   UNL     1      -7.261   2.159  -2.485  0.00  0.00    -0.083 Cl
ATOM     43  H   UNL     1      -2.335   2.578   1.626  0.00  0.00    +0.063 HD
ATOM     44  H   UNL     1      -3.400   4.176   0.101  0.00  0.00    +0.062 HD
ATOM     45  H   UNL     1      -5.296   3.519  -1.283  0.00  0.00    +0.062 HD
ATOM     46  H   UNL     1      -4.704  -1.587   0.877  0.00  0.00    +0.062 HD
ATOM     47  H   UNL     1      -6.585  -2.231  -0.525  0.00  0.00    +0.062 HD
ATOM     48  H   UNL     1      -7.698  -0.588  -1.980  0.00  0.00    +0.063 HD
ENDBRANCH  29  32
ENDBRANCH  26  28
ENDBRANCH   1  26
TORSDOF 5
