REMARK  Name = 
REMARK  5 active torsions:
REMARK  status: ('A' for Active; 'I' for Inactive)
REMARK    1  A    between atoms: C_8  and  C_10
REMARK    2  A    between atoms: C_14  and  N_16
REMARK    3  A    between atoms: N_16  and  C_17
REMARK    4  A    between atoms: C_17  and  N_19
REMARK    5  A    between atoms: C_20  and  C_22
REMARK                            x       y       z     vdW  Elec       q    Type
REMARK                         _______ _______ _______ _____ _____    ______ ____
ROOT
ATOM      1  N   UNL     1      -0.131   0.124  -0.320  0.00  0.00    -0.295 N 
ATOM      2  H   UNL     1      -0.206   0.044  -1.359  0.00  0.00    +0.154 HD
ENDROOT
BRANCH   1   7
ATOM      3  C   UNL     1       3.453   0.952   0.371  0.00  0.00    +0.009 A 
ATOM      4  C   UNL     1       3.307   2.054   1.231  0.00  0.00    -0.051 A 
ATOM      5  C   UNL     1       2.036   2.528   1.567  0.00  0.00    -0.041 A 
ATOM      6  C   UNL     1       0.892   1.904   1.061  0.00  0.00    +0.062 A 
ATOM      7  C   UNL     1       1.022   0.783   0.220  0.00  0.00    +0.052 A 
ATOM      8  C   UNL     1       2.299   0.328  -0.137  0.00  0.00    -0.029 A 
ATOM      9 CL   UNL     1      -0.684   2.585   1.445  0.00  0.00    -0.082 Cl
ATOM     10  H   UNL     1       4.174   2.559   1.637  0.00  0.00    +0.062 HD
ATOM     11  H   UNL     1       1.943   3.391   2.215  0.00  0.00    +0.063 HD
ATOM     12  H   UNL     1       2.380  -0.523  -0.800  0.00  0.00    +0.064 HD
BRANCH   3  20
ATOM     13  C   UNL     1       9.414   0.020  -0.263  0.00  0.00    -0.060 A 
ATOM     14  C   UNL     1       9.143  -1.068  -1.117  0.00  0.00    -0.061 A 
ATOM     15  C   UNL     1       7.818  -1.423  -1.415  0.00  0.00    -0.046 A 
ATOM     16  C   UNL     1       6.795  -0.670  -0.844  0.00  0.00    +0.040 A 
ATOM     17  C   UNL     1       7.048   0.401  -0.003  0.00  0.00    +0.079 A 
ATOM     18  C   UNL     1       8.362   0.763   0.301  0.00  0.00    -0.035 A 
ATOM     19  N   UNL     1       5.947   1.035   0.475  0.00  0.00    -0.239 NA
ATOM     20  C   UNL     1       4.805   0.465   0.011  0.00  0.00    +0.110 A 
ATOM     21  S   UNL     1       5.137  -0.851  -1.012  0.00  0.00    -0.067 S 
ATOM     22  H   UNL     1      10.439   0.286  -0.039  0.00  0.00    +0.062 HD
ATOM     23  H   UNL     1       9.961  -1.633  -1.545  0.00  0.00    +0.062 HD
ATOM     24  H   UNL     1       7.599  -2.256  -2.070  0.00  0.00    +0.063 HD
ATOM     25  H   UNL     1       8.568   1.599   0.957  0.00  0.00    +0.064 HD
ENDBRANCH   3  20
ENDBRANCH   1   7
BRANCH   1  26
ATOM     26  C   UNL     1      -1.110  -0.555   0.484  0.00  0.00    +0.141 C 
ATOM     27  S   UNL     1      -0.789  -0.912   2.060  0.00  0.00    -0.018 S 
BRANCH  26  28
ATOM     28  N   UNL     1      -2.386  -0.865  -0.102  0.00  0.00    -0.264 N 
ATOM     29  C   UNL     1      -3.363  -1.757   0.461  0.00  0.00    +0.250 C 
ATOM     30  O   UNL     1      -3.010  -2.674   1.250  0.00  0.00    -0.270 OA
ATOM     31  H   UNL     1      -2.630  -0.388  -0.999  0.00  0.00    +0.157 HD
BRANCH  29  32
ATOM     32  C   UNL     1      -4.778  -1.673   0.037  0.00  0.00    +0.045 A 
ATOM     33  C   UNL     1      -5.407  -2.853  -0.386  0.00  0.00    -0.049 A 
ATOM     34  C   UNL     1      -6.714  -2.832  -0.864  0.00  0.00    -0.060 A 
ATOM     35  C   UNL     1      -7.422  -1.635  -0.927  0.00  0.00    -0.053 A 
ATOM     36  C   UNL     1      -6.838  -0.433  -0.486  0.00  0.00    +0.001 A 
ATOM     37  C   UNL     1      -5.504  -0.450   0.018  0.00  0.00    -0.004 A 
ATOM     38  C   UNL     1      -4.954   0.749   0.521  0.00  0.00    -0.053 A 
ATOM     39  C   UNL     1      -5.680   1.938   0.481  0.00  0.00    -0.060 A 
ATOM     40  C   UNL     1      -6.968   1.958  -0.045  0.00  0.00    -0.043 A 
ATOM     41  C   UNL     1      -7.557   0.784  -0.523  0.00  0.00    +0.049 A 
ATOM     42 CL   UNL     1      -9.201   0.893  -1.151  0.00  0.00    -0.083 Cl
ATOM     43  H   UNL     1      -4.872  -3.795  -0.370  0.00  0.00    +0.063 HD
ATOM     44  H   UNL     1      -7.178  -3.751  -1.199  0.00  0.00    +0.062 HD
ATOM     45  H   UNL     1      -8.432  -1.664  -1.312  0.00  0.00    +0.062 HD
ATOM     46  H   UNL     1      -3.971   0.778   0.971  0.00  0.00    +0.062 HD
ATOM     47  H   UNL     1      -5.242   2.850   0.867  0.00  0.00    +0.062 HD
ATOM     48  H   UNL     1      -7.517   2.891  -0.070  0.00  0.00    +0.063 HD
ENDBRANCH  29  32
ENDBRANCH  26  28
ENDBRANCH   1  26
TORSDOF 5
