REMARK  Name = 
REMARK  5 active torsions:
REMARK  status: ('A' for Active; 'I' for Inactive)
REMARK    1  A    between atoms: C_8  and  C_10
REMARK    2  A    between atoms: C_14  and  N_16
REMARK    3  A    between atoms: N_16  and  C_17
REMARK    4  A    between atoms: C_17  and  N_19
REMARK    5  A    between atoms: C_20  and  C_22
REMARK                            x       y       z     vdW  Elec       q    Type
REMARK                         _______ _______ _______ _____ _____    ______ ____
ROOT
ATOM      1  N   UNL     1       0.030   0.100   0.324  0.00  0.00    -0.295 N 
ATOM      2  H   UNL     1       0.065   1.125   0.521  0.00  0.00    +0.154 HD
ENDROOT
BRANCH   1   7
ATOM      3  C   UNL     1      -3.514  -0.924   0.957  0.00  0.00    +0.009 A 
ATOM      4  C   UNL     1      -3.322  -2.038   1.792  0.00  0.00    -0.051 A 
ATOM      5  C   UNL     1      -2.033  -2.437   2.155  0.00  0.00    -0.041 A 
ATOM      6  C   UNL     1      -0.917  -1.741   1.682  0.00  0.00    +0.062 A 
ATOM      7  C   UNL     1      -1.094  -0.639   0.824  0.00  0.00    +0.052 A 
ATOM      8  C   UNL     1      -2.389  -0.226   0.484  0.00  0.00    -0.029 A 
ATOM      9 CL   UNL     1       0.682  -2.229   2.231  0.00  0.00    -0.082 Cl
ATOM     10  H   UNL     1      -4.163  -2.598   2.177  0.00  0.00    +0.062 HD
ATOM     11  H   UNL     1      -1.903  -3.285   2.816  0.00  0.00    +0.063 HD
ATOM     12  H   UNL     1      -2.510   0.635  -0.161  0.00  0.00    +0.064 HD
BRANCH   3  20
ATOM     13  C   UNL     1      -8.387   1.881  -1.323  0.00  0.00    -0.060 A 
ATOM     14  C   UNL     1      -9.218   0.951  -0.666  0.00  0.00    -0.061 A 
ATOM     15  C   UNL     1      -8.657  -0.072   0.116  0.00  0.00    -0.046 A 
ATOM     16  C   UNL     1      -7.270  -0.133   0.218  0.00  0.00    +0.040 A 
ATOM     17  C   UNL     1      -6.444   0.775  -0.423  0.00  0.00    +0.079 A 
ATOM     18  C   UNL     1      -6.989   1.796  -1.203  0.00  0.00    -0.035 A 
ATOM     19  N   UNL     1      -5.114   0.586  -0.228  0.00  0.00    -0.239 NA
ATOM     20  C   UNL     1      -4.877  -0.483   0.576  0.00  0.00    +0.110 A 
ATOM     21  S   UNL     1      -6.325  -1.225   1.067  0.00  0.00    -0.067 S 
ATOM     22  H   UNL     1      -8.829   2.666  -1.924  0.00  0.00    +0.062 HD
ATOM     23  H   UNL     1     -10.293   1.025  -0.765  0.00  0.00    +0.062 HD
ATOM     24  H   UNL     1      -9.286  -0.791   0.625  0.00  0.00    +0.063 HD
ATOM     25  H   UNL     1      -6.350   2.510  -1.707  0.00  0.00    +0.064 HD
ENDBRANCH   3  20
ENDBRANCH   1   7
BRANCH   1  26
ATOM     26  C   UNL     1       1.028  -0.459  -0.545  0.00  0.00    +0.141 C 
ATOM     27  S   UNL     1       0.760  -1.897  -1.304  0.00  0.00    -0.018 S 
BRANCH  26  28
ATOM     28  N   UNL     1       2.278   0.237  -0.694  0.00  0.00    -0.264 N 
ATOM     29  C   UNL     1       3.263  -0.033  -1.705  0.00  0.00    +0.250 C 
ATOM     30  O   UNL     1       2.927  -0.566  -2.797  0.00  0.00    -0.270 OA
ATOM     31  H   UNL     1       2.495   0.986   0.002  0.00  0.00    +0.157 HD
BRANCH  29  32
ATOM     32  C   UNL     1       4.663   0.408  -1.516  0.00  0.00    +0.045 A 
ATOM     33  C   UNL     1       5.260   1.151  -2.546  0.00  0.00    -0.049 A 
ATOM     34  C   UNL     1       6.549   1.657  -2.404  0.00  0.00    -0.060 A 
ATOM     35  C   UNL     1       7.270   1.429  -1.234  0.00  0.00    -0.053 A 
ATOM     36  C   UNL     1       6.718   0.666  -0.189  0.00  0.00    +0.001 A 
ATOM     37  C   UNL     1       5.403   0.133  -0.334  0.00  0.00    -0.004 A 
ATOM     38  C   UNL     1       4.887  -0.690   0.691  0.00  0.00    -0.053 A 
ATOM     39  C   UNL     1       5.627  -0.935   1.847  0.00  0.00    -0.060 A 
ATOM     40  C   UNL     1       6.895  -0.384   2.001  0.00  0.00    -0.043 A 
ATOM     41  C   UNL     1       7.451   0.409   0.993  0.00  0.00    +0.049 A 
ATOM     42 CL   UNL     1       9.072   1.049   1.259  0.00  0.00    -0.083 Cl
ATOM     43  H   UNL     1       4.714   1.363  -3.457  0.00  0.00    +0.063 HD
ATOM     44  H   UNL     1       6.989   2.239  -3.203  0.00  0.00    +0.062 HD
ATOM     45  H   UNL     1       8.265   1.847  -1.163  0.00  0.00    +0.062 HD
ATOM     46  H   UNL     1       3.922  -1.168   0.604  0.00  0.00    +0.062 HD
ATOM     47  H   UNL     1       5.215  -1.564   2.626  0.00  0.00    +0.062 HD
ATOM     48  H   UNL     1       7.455  -0.585   2.905  0.00  0.00    +0.063 HD
ENDBRANCH  29  32
ENDBRANCH  26  28
ENDBRANCH   1  26
TORSDOF 5
