REMARK  Name = 
REMARK  5 active torsions:
REMARK  status: ('A' for Active; 'I' for Inactive)
REMARK    1  A    between atoms: C_8  and  C_10
REMARK    2  A    between atoms: C_14  and  N_16
REMARK    3  A    between atoms: N_16  and  C_17
REMARK    4  A    between atoms: C_17  and  N_19
REMARK    5  A    between atoms: C_20  and  C_22
REMARK                            x       y       z     vdW  Elec       q    Type
REMARK                         _______ _______ _______ _____ _____    ______ ____
ROOT
ATOM      1  N   UNL     1      -0.357   1.657   0.714  0.00  0.00    -0.295 N 
ATOM      2  H   UNL     1      -1.005   2.188   0.093  0.00  0.00    +0.154 HD
ENDROOT
BRANCH   1   7
ATOM      3  C   UNL     1       3.333   1.205   0.174  0.00  0.00    +0.009 A 
ATOM      4  C   UNL     1       3.767   2.539   0.264  0.00  0.00    -0.051 A 
ATOM      5  C   UNL     1       2.852   3.567   0.498  0.00  0.00    -0.041 A 
ATOM      6  C   UNL     1       1.493   3.282   0.654  0.00  0.00    +0.062 A 
ATOM      7  C   UNL     1       1.044   1.952   0.590  0.00  0.00    +0.052 A 
ATOM      8  C   UNL     1       1.964   0.923   0.330  0.00  0.00    -0.029 A 
ATOM      9 CL   UNL     1       0.373   4.603   0.959  0.00  0.00    -0.082 Cl
ATOM     10  H   UNL     1       4.814   2.789   0.148  0.00  0.00    +0.062 HD
ATOM     11  H   UNL     1       3.203   4.590   0.559  0.00  0.00    +0.063 HD
ATOM     12  H   UNL     1       1.601  -0.092   0.236  0.00  0.00    +0.064 HD
BRANCH   3  20
ATOM     13  C   UNL     1       8.263  -2.161  -0.910  0.00  0.00    -0.060 A 
ATOM     14  C   UNL     1       7.461  -3.320  -0.907  0.00  0.00    -0.061 A 
ATOM     15  C   UNL     1       6.077  -3.223  -0.690  0.00  0.00    -0.046 A 
ATOM     16  C   UNL     1       5.534  -1.958  -0.480  0.00  0.00    +0.040 A 
ATOM     17  C   UNL     1       6.312  -0.813  -0.481  0.00  0.00    +0.079 A 
ATOM     18  C   UNL     1       7.689  -0.896  -0.696  0.00  0.00    -0.035 A 
ATOM     19  N   UNL     1       5.638   0.345  -0.262  0.00  0.00    -0.239 NA
ATOM     20  C   UNL     1       4.310   0.121  -0.086  0.00  0.00    +0.110 A 
ATOM     21  S   UNL     1       3.937  -1.533  -0.197  0.00  0.00    -0.067 S 
ATOM     22  H   UNL     1       9.329  -2.245  -1.079  0.00  0.00    +0.062 HD
ATOM     23  H   UNL     1       7.913  -4.288  -1.074  0.00  0.00    +0.062 HD
ATOM     24  H   UNL     1       5.452  -4.107  -0.686  0.00  0.00    +0.063 HD
ATOM     25  H   UNL     1       8.304  -0.005  -0.698  0.00  0.00    +0.064 HD
ENDBRANCH   3  20
ENDBRANCH   1   7
BRANCH   1  26
ATOM     26  C   UNL     1      -0.904   0.689   1.631  0.00  0.00    +0.141 C 
ATOM     27  S   UNL     1       0.047  -0.074   2.732  0.00  0.00    -0.018 S 
BRANCH  26  28
ATOM     28  N   UNL     1      -2.299   0.354   1.589  0.00  0.00    -0.264 N 
ATOM     29  C   UNL     1      -3.330   1.287   1.235  0.00  0.00    +0.250 C 
ATOM     30  O   UNL     1      -3.123   2.527   1.331  0.00  0.00    -0.270 OA
ATOM     31  H   UNL     1      -2.588  -0.603   1.894  0.00  0.00    +0.157 HD
BRANCH  29  32
ATOM     32  C   UNL     1      -4.680   0.804   0.867  0.00  0.00    +0.045 A 
ATOM     33  C   UNL     1      -5.780   1.369   1.527  0.00  0.00    -0.049 A 
ATOM     34  C   UNL     1      -7.072   0.911   1.280  0.00  0.00    -0.060 A 
ATOM     35  C   UNL     1      -7.292  -0.116   0.366  0.00  0.00    -0.053 A 
ATOM     36  C   UNL     1      -6.218  -0.690  -0.339  0.00  0.00    +0.001 A 
ATOM     37  C   UNL     1      -4.894  -0.217  -0.100  0.00  0.00    -0.004 A 
ATOM     38  C   UNL     1      -3.834  -0.752  -0.863  0.00  0.00    -0.053 A 
ATOM     39  C   UNL     1      -4.067  -1.760  -1.797  0.00  0.00    -0.060 A 
ATOM     40  C   UNL     1      -5.356  -2.245  -2.002  0.00  0.00    -0.043 A 
ATOM     41  C   UNL     1      -6.434  -1.717  -1.288  0.00  0.00    +0.049 A 
ATOM     42 CL   UNL     1      -8.036  -2.372  -1.625  0.00  0.00    -0.083 Cl
ATOM     43  H   UNL     1      -5.637   2.153   2.261  0.00  0.00    +0.063 HD
ATOM     44  H   UNL     1      -7.908   1.350   1.809  0.00  0.00    +0.062 HD
ATOM     45  H   UNL     1      -8.311  -0.444   0.209  0.00  0.00    +0.062 HD
ATOM     46  H   UNL     1      -2.823  -0.385  -0.765  0.00  0.00    +0.062 HD
ATOM     47  H   UNL     1      -3.243  -2.163  -2.372  0.00  0.00    +0.062 HD
ATOM     48  H   UNL     1      -5.518  -3.029  -2.731  0.00  0.00    +0.063 HD
ENDBRANCH  29  32
ENDBRANCH  26  28
ENDBRANCH   1  26
TORSDOF 5
