REMARK  Name = 
REMARK  5 active torsions:
REMARK  status: ('A' for Active; 'I' for Inactive)
REMARK    1  A    between atoms: C_8  and  C_10
REMARK    2  A    between atoms: C_14  and  N_16
REMARK    3  A    between atoms: N_16  and  C_17
REMARK    4  A    between atoms: C_17  and  N_19
REMARK    5  A    between atoms: C_20  and  C_22
REMARK                            x       y       z     vdW  Elec       q    Type
REMARK                         _______ _______ _______ _____ _____    ______ ____
ROOT
ATOM      1  N   UNL     1      -0.374  -1.772   0.238  0.00  0.00    -0.295 N 
ATOM      2  H   UNL     1      -0.962  -2.521  -0.191  0.00  0.00    +0.154 HD
ENDROOT
BRANCH   1   7
ATOM      3  C   UNL     1       3.346  -1.527   0.735  0.00  0.00    +0.009 A 
ATOM      4  C   UNL     1       3.607  -2.777   1.320  0.00  0.00    -0.051 A 
ATOM      5  C   UNL     1       2.570  -3.684   1.544  0.00  0.00    -0.041 A 
ATOM      6  C   UNL     1       1.256  -3.357   1.196  0.00  0.00    +0.062 A 
ATOM      7  C   UNL     1       0.971  -2.103   0.625  0.00  0.00    +0.052 A 
ATOM      8  C   UNL     1       2.024  -1.202   0.384  0.00  0.00    -0.029 A 
ATOM      9 CL   UNL     1      -0.020  -4.524   1.520  0.00  0.00    -0.082 Cl
ATOM     10  H   UNL     1       4.614  -3.058   1.602  0.00  0.00    +0.062 HD
ATOM     11  H   UNL     1       2.789  -4.644   1.994  0.00  0.00    +0.063 HD
ATOM     12  H   UNL     1       1.806  -0.257  -0.095  0.00  0.00    +0.064 HD
BRANCH   3  20
ATOM     13  C   UNL     1       8.678   1.337   0.303  0.00  0.00    -0.060 A 
ATOM     14  C   UNL     1       8.023   2.451  -0.259  0.00  0.00    -0.061 A 
ATOM     15  C   UNL     1       6.632   2.433  -0.453  0.00  0.00    -0.046 A 
ATOM     16  C   UNL     1       5.934   1.289  -0.074  0.00  0.00    +0.040 A 
ATOM     17  C   UNL     1       6.566   0.188   0.479  0.00  0.00    +0.079 A 
ATOM     18  C   UNL     1       7.948   0.195   0.676  0.00  0.00    -0.035 A 
ATOM     19  N   UNL     1       5.750  -0.850   0.796  0.00  0.00    -0.239 NA
ATOM     20  C   UNL     1       4.455  -0.574   0.492  0.00  0.00    +0.110 A 
ATOM     21  S   UNL     1       4.290   0.978  -0.181  0.00  0.00    -0.067 S 
ATOM     22  H   UNL     1       9.750   1.360   0.449  0.00  0.00    +0.062 HD
ATOM     23  H   UNL     1       8.594   3.325  -0.542  0.00  0.00    +0.062 HD
ATOM     24  H   UNL     1       6.120   3.283  -0.883  0.00  0.00    +0.063 HD
ATOM     25  H   UNL     1       8.450  -0.662   1.108  0.00  0.00    +0.064 HD
ENDBRANCH   3  20
ENDBRANCH   1   7
BRANCH   1  26
ATOM     26  C   UNL     1      -0.956  -0.465   0.381  0.00  0.00    +0.141 C 
ATOM     27  S   UNL     1      -0.472   0.516   1.613  0.00  0.00    -0.018 S 
BRANCH  26  28
ATOM     28  N   UNL     1      -2.143  -0.153  -0.367  0.00  0.00    -0.264 N 
ATOM     29  C   UNL     1      -2.644   1.176  -0.585  0.00  0.00    +0.250 C 
ATOM     30  O   UNL     1      -1.896   2.176  -0.409  0.00  0.00    -0.270 OA
ATOM     31  H   UNL     1      -2.648  -0.942  -0.832  0.00  0.00    +0.157 HD
BRANCH  29  32
ATOM     32  C   UNL     1      -4.010   1.381  -1.118  0.00  0.00    +0.045 A 
ATOM     33  C   UNL     1      -4.157   2.211  -2.239  0.00  0.00    -0.049 A 
ATOM     34  C   UNL     1      -5.403   2.391  -2.834  0.00  0.00    -0.060 A 
ATOM     35  C   UNL     1      -6.528   1.751  -2.320  0.00  0.00    -0.053 A 
ATOM     36  C   UNL     1      -6.428   0.932  -1.180  0.00  0.00    +0.001 A 
ATOM     37  C   UNL     1      -5.157   0.754  -0.558  0.00  0.00    -0.004 A 
ATOM     38  C   UNL     1      -5.081  -0.014   0.624  0.00  0.00    -0.053 A 
ATOM     39  C   UNL     1      -6.217  -0.628   1.148  0.00  0.00    -0.060 A 
ATOM     40  C   UNL     1      -7.450  -0.482   0.518  0.00  0.00    -0.043 A 
ATOM     41  C   UNL     1      -7.569   0.296  -0.636  0.00  0.00    +0.049 A 
ATOM     42 CL   UNL     1      -9.171   0.448  -1.357  0.00  0.00    -0.083 Cl
ATOM     43  H   UNL     1      -3.296   2.703  -2.674  0.00  0.00    +0.063 HD
ATOM     44  H   UNL     1      -5.496   3.025  -3.706  0.00  0.00    +0.062 HD
ATOM     45  H   UNL     1      -7.474   1.913  -2.817  0.00  0.00    +0.062 HD
ATOM     46  H   UNL     1      -4.154  -0.129   1.167  0.00  0.00    +0.062 HD
ATOM     47  H   UNL     1      -6.142  -1.218   2.053  0.00  0.00    +0.062 HD
ATOM     48  H   UNL     1      -8.322  -0.967   0.938  0.00  0.00    +0.063 HD
ENDBRANCH  29  32
ENDBRANCH  26  28
ENDBRANCH   1  26
TORSDOF 5
