REMARK  Name = 
REMARK  5 active torsions:
REMARK  status: ('A' for Active; 'I' for Inactive)
REMARK    1  A    between atoms: C_8  and  C_10
REMARK    2  A    between atoms: C_14  and  N_16
REMARK    3  A    between atoms: N_16  and  C_17
REMARK    4  A    between atoms: C_17  and  N_19
REMARK    5  A    between atoms: C_20  and  C_22
REMARK                            x       y       z     vdW  Elec       q    Type
REMARK                         _______ _______ _______ _____ _____    ______ ____
ROOT
ATOM      1  N   UNL     1      -0.099   2.842   2.056  0.00  0.00    -0.295 N 
ATOM      2  H   UNL     1       0.637   3.541   2.305  0.00  0.00    +0.154 HD
ENDROOT
BRANCH   1   7
ATOM      3  C   UNL     1       1.749  -0.354   1.442  0.00  0.00    +0.009 A 
ATOM      4  C   UNL     1       0.932  -1.269   2.129  0.00  0.00    -0.051 A 
ATOM      5  C   UNL     1      -0.200  -0.829   2.818  0.00  0.00    -0.041 A 
ATOM      6  C   UNL     1      -0.547   0.525   2.819  0.00  0.00    +0.062 A 
ATOM      7  C   UNL     1       0.240   1.449   2.103  0.00  0.00    +0.052 A 
ATOM      8  C   UNL     1       1.398   1.007   1.448  0.00  0.00    -0.029 A 
ATOM      9 CL   UNL     1      -1.932   1.035   3.778  0.00  0.00    -0.082 Cl
ATOM     10  H   UNL     1       1.170  -2.324   2.147  0.00  0.00    +0.062 HD
ATOM     11  H   UNL     1      -0.805  -1.544   3.361  0.00  0.00    +0.063 HD
ATOM     12  H   UNL     1       2.008   1.730   0.921  0.00  0.00    +0.064 HD
BRANCH   3  20
ATOM     13  C   UNL     1       6.818  -0.831  -1.855  0.00  0.00    -0.060 A 
ATOM     14  C   UNL     1       6.822  -2.223  -1.630  0.00  0.00    -0.061 A 
ATOM     15  C   UNL     1       5.812  -2.819  -0.859  0.00  0.00    -0.046 A 
ATOM     16  C   UNL     1       4.820  -1.997  -0.331  0.00  0.00    +0.040 A 
ATOM     17  C   UNL     1       4.805  -0.629  -0.546  0.00  0.00    +0.079 A 
ATOM     18  C   UNL     1       5.804  -0.025  -1.311  0.00  0.00    -0.035 A 
ATOM     19  N   UNL     1       3.773   0.037   0.033  0.00  0.00    -0.239 NA
ATOM     20  C   UNL     1       2.957  -0.807   0.715  0.00  0.00    +0.110 A 
ATOM     21  S   UNL     1       3.501  -2.415   0.616  0.00  0.00    -0.067 S 
ATOM     22  H   UNL     1       7.601  -0.381  -2.452  0.00  0.00    +0.062 HD
ATOM     23  H   UNL     1       7.608  -2.835  -2.054  0.00  0.00    +0.062 HD
ATOM     24  H   UNL     1       5.806  -3.886  -0.680  0.00  0.00    +0.063 HD
ATOM     25  H   UNL     1       5.799   1.044  -1.484  0.00  0.00    +0.064 HD
ENDBRANCH   3  20
ENDBRANCH   1   7
BRANCH   1  26
ATOM     26  C   UNL     1      -1.384   3.317   1.629  0.00  0.00    +0.141 C 
ATOM     27  S   UNL     1      -1.972   4.708   2.260  0.00  0.00    -0.018 S 
BRANCH  26  28
ATOM     28  N   UNL     1      -2.176   2.584   0.683  0.00  0.00    -0.264 N 
ATOM     29  C   UNL     1      -1.618   1.987  -0.498  0.00  0.00    +0.250 C 
ATOM     30  O   UNL     1      -0.414   2.200  -0.806  0.00  0.00    -0.270 OA
ATOM     31  H   UNL     1      -3.217   2.642   0.760  0.00  0.00    +0.157 HD
BRANCH  29  32
ATOM     32  C   UNL     1      -2.473   1.215  -1.429  0.00  0.00    +0.045 A 
ATOM     33  C   UNL     1      -2.443   1.570  -2.787  0.00  0.00    -0.049 A 
ATOM     34  C   UNL     1      -3.263   0.928  -3.710  0.00  0.00    -0.060 A 
ATOM     35  C   UNL     1      -4.125  -0.086  -3.301  0.00  0.00    -0.053 A 
ATOM     36  C   UNL     1      -4.166  -0.491  -1.954  0.00  0.00    +0.001 A 
ATOM     37  C   UNL     1      -3.322   0.157  -1.005  0.00  0.00    -0.004 A 
ATOM     38  C   UNL     1      -3.325  -0.302   0.327  0.00  0.00    -0.053 A 
ATOM     39  C   UNL     1      -4.168  -1.339   0.725  0.00  0.00    -0.060 A 
ATOM     40  C   UNL     1      -5.015  -1.947  -0.197  0.00  0.00    -0.043 A 
ATOM     41  C   UNL     1      -5.020  -1.538  -1.533  0.00  0.00    +0.049 A 
ATOM     42 CL   UNL     1      -6.107  -2.376  -2.639  0.00  0.00    -0.083 Cl
ATOM     43  H   UNL     1      -1.797   2.369  -3.130  0.00  0.00    +0.063 HD
ATOM     44  H   UNL     1      -3.236   1.224  -4.751  0.00  0.00    +0.062 HD
ATOM     45  H   UNL     1      -4.748  -0.555  -4.051  0.00  0.00    +0.062 HD
ATOM     46  H   UNL     1      -2.668   0.120   1.069  0.00  0.00    +0.062 HD
ATOM     47  H   UNL     1      -4.159  -1.676   1.753  0.00  0.00    +0.062 HD
ATOM     48  H   UNL     1      -5.664  -2.751   0.128  0.00  0.00    +0.063 HD
ENDBRANCH  29  32
ENDBRANCH  26  28
ENDBRANCH   1  26
TORSDOF 5
