REMARK  Name = 
REMARK  5 active torsions:
REMARK  status: ('A' for Active; 'I' for Inactive)
REMARK    1  A    between atoms: C_8  and  C_10
REMARK    2  A    between atoms: C_14  and  N_16
REMARK    3  A    between atoms: N_16  and  C_17
REMARK    4  A    between atoms: C_17  and  N_19
REMARK    5  A    between atoms: C_20  and  C_22
REMARK                            x       y       z     vdW  Elec       q    Type
REMARK                         _______ _______ _______ _____ _____    ______ ____
ROOT
ATOM      1  N   UNL     1       0.448  -0.455   1.535  0.00  0.00    -0.295 N 
ATOM      2  H   UNL     1       1.224  -1.115   1.765  0.00  0.00    +0.154 HD
ENDROOT
BRANCH   1   7
ATOM      3  C   UNL     1      -3.281  -0.876   1.269  0.00  0.00    +0.009 A 
ATOM      4  C   UNL     1      -3.530  -1.663   2.405  0.00  0.00    -0.051 A 
ATOM      5  C   UNL     1      -2.482  -2.046   3.244  0.00  0.00    -0.041 A 
ATOM      6  C   UNL     1      -1.171  -1.649   2.968  0.00  0.00    +0.062 A 
ATOM      7  C   UNL     1      -0.902  -0.847   1.843  0.00  0.00    +0.052 A 
ATOM      8  C   UNL     1      -1.960  -0.479   0.992  0.00  0.00    -0.029 A 
ATOM      9 CL   UNL     1       0.108  -2.139   4.071  0.00  0.00    -0.082 Cl
ATOM     10  H   UNL     1      -4.535  -1.985   2.646  0.00  0.00    +0.062 HD
ATOM     11  H   UNL     1      -2.693  -2.654   4.115  0.00  0.00    +0.063 HD
ATOM     12  H   UNL     1      -1.744   0.103   0.106  0.00  0.00    +0.064 HD
BRANCH   3  20
ATOM     13  C   UNL     1      -8.634  -0.006  -1.450  0.00  0.00    -0.060 A 
ATOM     14  C   UNL     1      -7.996   0.771  -2.438  0.00  0.00    -0.061 A 
ATOM     15  C   UNL     1      -6.609   0.984  -2.386  0.00  0.00    -0.046 A 
ATOM     16  C   UNL     1      -5.897   0.406  -1.338  0.00  0.00    +0.040 A 
ATOM     17  C   UNL     1      -6.513  -0.360  -0.362  0.00  0.00    +0.079 A 
ATOM     18  C   UNL     1      -7.891  -0.577  -0.403  0.00  0.00    -0.035 A 
ATOM     19  N   UNL     1      -5.686  -0.855   0.594  0.00  0.00    -0.239 NA
ATOM     20  C   UNL     1      -4.398  -0.481   0.379  0.00  0.00    +0.110 A 
ATOM     21  S   UNL     1      -4.254   0.482  -1.014  0.00  0.00    -0.067 S 
ATOM     22  H   UNL     1      -9.704  -0.164  -1.499  0.00  0.00    +0.062 HD
ATOM     23  H   UNL     1      -8.577   1.207  -3.240  0.00  0.00    +0.062 HD
ATOM     24  H   UNL     1      -6.109   1.579  -3.139  0.00  0.00    +0.063 HD
ATOM     25  H   UNL     1      -8.381  -1.175   0.356  0.00  0.00    +0.064 HD
ENDBRANCH   3  20
ENDBRANCH   1   7
BRANCH   1  26
ATOM     26  C   UNL     1       0.800   0.809   0.949  0.00  0.00    +0.141 C 
ATOM     27  S   UNL     1      -0.019   2.167   1.374  0.00  0.00    -0.018 S 
BRANCH  26  28
ATOM     28  N   UNL     1       2.020   0.946   0.206  0.00  0.00    -0.264 N 
ATOM     29  C   UNL     1       2.644  -0.143  -0.490  0.00  0.00    +0.250 C 
ATOM     30  O   UNL     1       1.994  -1.196  -0.736  0.00  0.00    -0.270 OA
ATOM     31  H   UNL     1       2.449   1.895   0.120  0.00  0.00    +0.157 HD
BRANCH  29  32
ATOM     32  C   UNL     1       4.022  -0.005  -1.012  0.00  0.00    +0.045 A 
ATOM     33  C   UNL     1       4.245  -0.312  -2.362  0.00  0.00    -0.049 A 
ATOM     34  C   UNL     1       5.502  -0.139  -2.934  0.00  0.00    -0.060 A 
ATOM     35  C   UNL     1       6.564   0.340  -2.170  0.00  0.00    -0.053 A 
ATOM     36  C   UNL     1       6.388   0.633  -0.805  0.00  0.00    +0.001 A 
ATOM     37  C   UNL     1       5.107   0.446  -0.210  0.00  0.00    -0.004 A 
ATOM     38  C   UNL     1       4.960   0.677   1.174  0.00  0.00    -0.053 A 
ATOM     39  C   UNL     1       6.035   1.129   1.938  0.00  0.00    -0.060 A 
ATOM     40  C   UNL     1       7.276   1.346   1.347  0.00  0.00    -0.043 A 
ATOM     41  C   UNL     1       7.466   1.097  -0.015  0.00  0.00    +0.049 A 
ATOM     42 CL   UNL     1       9.076   1.376  -0.679  0.00  0.00    -0.083 Cl
ATOM     43  H   UNL     1       3.432  -0.665  -2.986  0.00  0.00    +0.063 HD
ATOM     44  H   UNL     1       5.653  -0.368  -3.981  0.00  0.00    +0.062 HD
ATOM     45  H   UNL     1       7.521   0.466  -2.657  0.00  0.00    +0.062 HD
ATOM     46  H   UNL     1       4.026   0.492   1.685  0.00  0.00    +0.062 HD
ATOM     47  H   UNL     1       5.906   1.307   2.998  0.00  0.00    +0.062 HD
ATOM     48  H   UNL     1       8.100   1.698   1.955  0.00  0.00    +0.063 HD
ENDBRANCH  29  32
ENDBRANCH  26  28
ENDBRANCH   1  26
TORSDOF 5
