REMARK  Name = 
REMARK  5 active torsions:
REMARK  status: ('A' for Active; 'I' for Inactive)
REMARK    1  A    between atoms: C_8  and  C_10
REMARK    2  A    between atoms: C_14  and  N_16
REMARK    3  A    between atoms: N_16  and  C_17
REMARK    4  A    between atoms: C_17  and  N_19
REMARK    5  A    between atoms: C_20  and  C_22
REMARK                            x       y       z     vdW  Elec       q    Type
REMARK                         _______ _______ _______ _____ _____    ______ ____
ROOT
ATOM      1  N   UNL     1      -0.227  -1.407   0.029  0.00  0.00    -0.295 N 
ATOM      2  H   UNL     1      -0.787  -2.064   0.616  0.00  0.00    +0.154 HD
ENDROOT
BRANCH   1   7
ATOM      3  C   UNL     1       3.523  -1.290  -0.137  0.00  0.00    +0.009 A 
ATOM      4  C   UNL     1       3.790  -2.545  -0.709  0.00  0.00    -0.051 A 
ATOM      5  C   UNL     1       2.744  -3.413  -1.032  0.00  0.00    -0.041 A 
ATOM      6  C   UNL     1       1.418  -3.041  -0.797  0.00  0.00    +0.062 A 
ATOM      7  C   UNL     1       1.131  -1.780  -0.246  0.00  0.00    +0.052 A 
ATOM      8  C   UNL     1       2.187  -0.921   0.100  0.00  0.00    -0.029 A 
ATOM      9 CL   UNL     1       0.128  -4.155  -1.227  0.00  0.00    -0.082 Cl
ATOM     10  H   UNL     1       4.807  -2.860  -0.903  0.00  0.00    +0.062 HD
ATOM     11  H   UNL     1       2.968  -4.379  -1.467  0.00  0.00    +0.063 HD
ATOM     12  H   UNL     1       1.956   0.028   0.566  0.00  0.00    +0.064 HD
BRANCH   3  20
ATOM     13  C   UNL     1       8.893   1.376   0.794  0.00  0.00    -0.060 A 
ATOM     14  C   UNL     1       8.230   2.509   1.308  0.00  0.00    -0.061 A 
ATOM     15  C   UNL     1       6.828   2.540   1.378  0.00  0.00    -0.046 A 
ATOM     16  C   UNL     1       6.126   1.425   0.927  0.00  0.00    +0.040 A 
ATOM     17  C   UNL     1       6.766   0.306   0.421  0.00  0.00    +0.079 A 
ATOM     18  C   UNL     1       8.159   0.264   0.346  0.00  0.00    -0.035 A 
ATOM     19  N   UNL     1       5.945  -0.700   0.022  0.00  0.00    -0.239 NA
ATOM     20  C   UNL     1       4.639  -0.380   0.213  0.00  0.00    +0.110 A 
ATOM     21  S   UNL     1       4.470   1.172   0.886  0.00  0.00    -0.067 S 
ATOM     22  H   UNL     1       9.974   1.362   0.744  0.00  0.00    +0.062 HD
ATOM     23  H   UNL     1       8.805   3.360   1.650  0.00  0.00    +0.062 HD
ATOM     24  H   UNL     1       6.310   3.405   1.771  0.00  0.00    +0.063 HD
ATOM     25  H   UNL     1       8.666  -0.607  -0.049  0.00  0.00    +0.064 HD
ENDBRANCH   3  20
ENDBRANCH   1   7
BRANCH   1  26
ATOM     26  C   UNL     1      -0.859  -0.214  -0.476  0.00  0.00    +0.141 C 
ATOM     27  S   UNL     1      -0.043   0.846  -1.429  0.00  0.00    -0.018 S 
BRANCH  26  28
ATOM     28  N   UNL     1      -2.216   0.092  -0.127  0.00  0.00    -0.264 N 
ATOM     29  C   UNL     1      -3.261  -0.891  -0.058  0.00  0.00    +0.250 C 
ATOM     30  O   UNL     1      -3.036  -2.091  -0.372  0.00  0.00    -0.270 OA
ATOM     31  H   UNL     1      -2.471   1.098   0.003  0.00  0.00    +0.157 HD
BRANCH  29  32
ATOM     32  C   UNL     1      -4.615  -0.509   0.394  0.00  0.00    +0.045 A 
ATOM     33  C   UNL     1      -5.140  -1.169   1.514  0.00  0.00    -0.049 A 
ATOM     34  C   UNL     1      -6.386  -0.817   2.027  0.00  0.00    -0.060 A 
ATOM     35  C   UNL     1      -7.134   0.195   1.429  0.00  0.00    -0.053 A 
ATOM     36  C   UNL     1      -6.652   0.861   0.286  0.00  0.00    +0.001 A 
ATOM     37  C   UNL     1      -5.382   0.498  -0.249  0.00  0.00    -0.004 A 
ATOM     38  C   UNL     1      -4.936   1.128  -1.429  0.00  0.00    -0.053 A 
ATOM     39  C   UNL     1      -5.701   2.121  -2.039  0.00  0.00    -0.060 A 
ATOM     40  C   UNL     1      -6.927   2.496  -1.496  0.00  0.00    -0.043 A 
ATOM     41  C   UNL     1      -7.413   1.874  -0.344  0.00  0.00    +0.049 A 
ATOM     42 CL   UNL     1      -8.984   2.395   0.266  0.00  0.00    -0.083 Cl
ATOM     43  H   UNL     1      -4.570  -1.947   2.008  0.00  0.00    +0.063 HD
ATOM     44  H   UNL     1      -6.771  -1.328   2.900  0.00  0.00    +0.062 HD
ATOM     45  H   UNL     1      -8.094   0.439   1.863  0.00  0.00    +0.062 HD
ATOM     46  H   UNL     1      -4.003   0.850  -1.901  0.00  0.00    +0.062 HD
ATOM     47  H   UNL     1      -5.344   2.599  -2.942  0.00  0.00    +0.062 HD
ATOM     48  H   UNL     1      -7.508   3.270  -1.983  0.00  0.00    +0.063 HD
ENDBRANCH  29  32
ENDBRANCH  26  28
ENDBRANCH   1  26
TORSDOF 5
