REMARK  Name = 
REMARK  5 active torsions:
REMARK  status: ('A' for Active; 'I' for Inactive)
REMARK    1  A    between atoms: C_8  and  C_10
REMARK    2  A    between atoms: C_14  and  N_16
REMARK    3  A    between atoms: N_16  and  C_17
REMARK    4  A    between atoms: C_17  and  N_19
REMARK    5  A    between atoms: C_20  and  C_22
REMARK                            x       y       z     vdW  Elec       q    Type
REMARK                         _______ _______ _______ _____ _____    ______ ____
ROOT
ATOM      1  N   UNL     1      -0.379   1.154   1.017  0.00  0.00    -0.295 N 
ATOM      2  H   UNL     1      -1.073   1.086   1.794  0.00  0.00    +0.154 HD
ENDROOT
BRANCH   1   7
ATOM      3  C   UNL     1       3.371   0.875   0.896  0.00  0.00    +0.009 A 
ATOM      4  C   UNL     1       3.718   1.630   2.028  0.00  0.00    -0.051 A 
ATOM      5  C   UNL     1       2.730   2.221   2.816  0.00  0.00    -0.041 A 
ATOM      6  C   UNL     1       1.379   2.073   2.487  0.00  0.00    +0.062 A 
ATOM      7  C   UNL     1       1.010   1.334   1.348  0.00  0.00    +0.052 A 
ATOM      8  C   UNL     1       2.011   0.727   0.568  0.00  0.00    -0.029 A 
ATOM      9 CL   UNL     1       0.175   2.859   3.501  0.00  0.00    -0.082 Cl
ATOM     10  H   UNL     1       4.756   1.764   2.307  0.00  0.00    +0.062 HD
ATOM     11  H   UNL     1       3.016   2.798   3.686  0.00  0.00    +0.063 HD
ATOM     12  H   UNL     1       1.721   0.126  -0.283  0.00  0.00    +0.064 HD
BRANCH   3  20
ATOM     13  C   UNL     1       8.564  -1.114  -1.530  0.00  0.00    -0.060 A 
ATOM     14  C   UNL     1       7.831  -1.748  -2.554  0.00  0.00    -0.061 A 
ATOM     15  C   UNL     1       6.430  -1.667  -2.578  0.00  0.00    -0.046 A 
ATOM     16  C   UNL     1       5.799  -0.946  -1.567  0.00  0.00    +0.040 A 
ATOM     17  C   UNL     1       6.507  -0.319  -0.556  0.00  0.00    +0.079 A 
ATOM     18  C   UNL     1       7.901  -0.393  -0.522  0.00  0.00    -0.035 A 
ATOM     19  N   UNL     1       5.751   0.345   0.355  0.00  0.00    -0.239 NA
ATOM     20  C   UNL     1       4.427   0.245   0.070  0.00  0.00    +0.110 A 
ATOM     21  S   UNL     1       4.161  -0.676  -1.334  0.00  0.00    -0.067 S 
ATOM     22  H   UNL     1       9.644  -1.183  -1.520  0.00  0.00    +0.062 HD
ATOM     23  H   UNL     1       8.352  -2.301  -3.325  0.00  0.00    +0.062 HD
ATOM     24  H   UNL     1       5.858  -2.150  -3.360  0.00  0.00    +0.063 HD
ATOM     25  H   UNL     1       8.462   0.095   0.265  0.00  0.00    +0.064 HD
ENDBRANCH   3  20
ENDBRANCH   1   7
BRANCH   1  26
ATOM     26  C   UNL     1      -0.878   1.087  -0.330  0.00  0.00    +0.141 C 
ATOM     27  S   UNL     1      -0.213   2.029  -1.499  0.00  0.00    -0.018 S 
BRANCH  26  28
ATOM     28  N   UNL     1      -2.112   0.412  -0.610  0.00  0.00    -0.264 N 
ATOM     29  C   UNL     1      -2.616  -0.671   0.188  0.00  0.00    +0.250 C 
ATOM     30  O   UNL     1      -1.854  -1.280   0.987  0.00  0.00    -0.270 OA
ATOM     31  H   UNL     1      -2.648   0.682  -1.466  0.00  0.00    +0.157 HD
BRANCH  29  32
ATOM     32  C   UNL     1      -4.007  -1.146   0.009  0.00  0.00    +0.045 A 
ATOM     33  C   UNL     1      -4.207  -2.518  -0.206  0.00  0.00    -0.049 A 
ATOM     34  C   UNL     1      -5.481  -3.022  -0.450  0.00  0.00    -0.060 A 
ATOM     35  C   UNL     1      -6.582  -2.170  -0.479  0.00  0.00    -0.053 A 
ATOM     36  C   UNL     1      -6.428  -0.792  -0.240  0.00  0.00    +0.001 A 
ATOM     37  C   UNL     1      -5.127  -0.271   0.022  0.00  0.00    -0.004 A 
ATOM     38  C   UNL     1      -4.994   1.101   0.328  0.00  0.00    -0.053 A 
ATOM     39  C   UNL     1      -6.105   1.942   0.325  0.00  0.00    -0.060 A 
ATOM     40  C   UNL     1      -7.369   1.437   0.033  0.00  0.00    -0.043 A 
ATOM     41  C   UNL     1      -7.543   0.079  -0.244  0.00  0.00    +0.049 A 
ATOM     42 CL   UNL     1      -9.180  -0.482  -0.581  0.00  0.00    -0.083 Cl
ATOM     43  H   UNL     1      -3.365  -3.200  -0.211  0.00  0.00    +0.063 HD
ATOM     44  H   UNL     1      -5.615  -4.081  -0.627  0.00  0.00    +0.062 HD
ATOM     45  H   UNL     1      -7.553  -2.603  -0.678  0.00  0.00    +0.062 HD
ATOM     46  H   UNL     1      -4.040   1.533   0.593  0.00  0.00    +0.062 HD
ATOM     47  H   UNL     1      -5.986   2.993   0.557  0.00  0.00    +0.062 HD
ATOM     48  H   UNL     1      -8.221   2.105   0.034  0.00  0.00    +0.063 HD
ENDBRANCH  29  32
ENDBRANCH  26  28
ENDBRANCH   1  26
TORSDOF 5
