REMARK  Name = 
REMARK  5 active torsions:
REMARK  status: ('A' for Active; 'I' for Inactive)
REMARK    1  A    between atoms: C_8  and  C_10
REMARK    2  A    between atoms: C_14  and  N_16
REMARK    3  A    between atoms: N_16  and  C_17
REMARK    4  A    between atoms: C_17  and  N_19
REMARK    5  A    between atoms: C_20  and  C_22
REMARK                            x       y       z     vdW  Elec       q    Type
REMARK                         _______ _______ _______ _____ _____    ______ ____
ROOT
ATOM      1  N   UNL     1       0.181   0.313   0.920  0.00  0.00    -0.295 N 
ATOM      2  H   UNL     1       0.079  -0.655   1.299  0.00  0.00    +0.154 HD
ENDROOT
BRANCH   1   7
ATOM      3  C   UNL     1       3.854   1.010   1.107  0.00  0.00    +0.009 A 
ATOM      4  C   UNL     1       3.851   2.298   1.669  0.00  0.00    -0.051 A 
ATOM      5  C   UNL     1       2.647   2.924   1.999  0.00  0.00    -0.041 A 
ATOM      6  C   UNL     1       1.427   2.283   1.763  0.00  0.00    +0.062 A 
ATOM      7  C   UNL     1       1.413   1.004   1.175  0.00  0.00    +0.052 A 
ATOM      8  C   UNL     1       2.625   0.368   0.872  0.00  0.00    -0.029 A 
ATOM      9 CL   UNL     1      -0.056   3.077   2.278  0.00  0.00    -0.082 Cl
ATOM     10  H   UNL     1       4.777   2.822   1.866  0.00  0.00    +0.062 HD
ATOM     11  H   UNL     1       2.664   3.908   2.452  0.00  0.00    +0.063 HD
ATOM     12  H   UNL     1       2.600  -0.624   0.438  0.00  0.00    +0.064 HD
BRANCH   3  20
ATOM     13  C   UNL     1       8.193  -2.815  -0.722  0.00  0.00    -0.060 A 
ATOM     14  C   UNL     1       9.170  -1.871  -0.346  0.00  0.00    -0.061 A 
ATOM     15  C   UNL     1       8.789  -0.638   0.206  0.00  0.00    -0.046 A 
ATOM     16  C   UNL     1       7.429  -0.385   0.367  0.00  0.00    +0.040 A 
ATOM     17  C   UNL     1       6.460  -1.304   0.001  0.00  0.00    +0.079 A 
ATOM     18  C   UNL     1       6.827  -2.534  -0.549  0.00  0.00    -0.035 A 
ATOM     19  N   UNL     1       5.179  -0.913   0.219  0.00  0.00    -0.239 NA
ATOM     20  C   UNL     1       5.125   0.330   0.764  0.00  0.00    +0.110 A 
ATOM     21  S   UNL     1       6.680   0.979   0.989  0.00  0.00    -0.067 S 
ATOM     22  H   UNL     1       8.497  -3.763  -1.147  0.00  0.00    +0.062 HD
ATOM     23  H   UNL     1      10.219  -2.098  -0.484  0.00  0.00    +0.062 HD
ATOM     24  H   UNL     1       9.531   0.094   0.498  0.00  0.00    +0.063 HD
ATOM     25  H   UNL     1       6.075  -3.258  -0.837  0.00  0.00    +0.064 HD
ENDBRANCH   3  20
ENDBRANCH   1   7
BRANCH   1  26
ATOM     26  C   UNL     1      -0.851   0.818   0.056  0.00  0.00    +0.141 C 
ATOM     27  S   UNL     1      -0.493   1.969  -1.067  0.00  0.00    -0.018 S 
BRANCH  26  28
ATOM     28  N   UNL     1      -2.117   0.136   0.021  0.00  0.00    -0.264 N 
ATOM     29  C   UNL     1      -3.346   0.715  -0.448  0.00  0.00    +0.250 C 
ATOM     30  O   UNL     1      -3.422   1.952  -0.682  0.00  0.00    -0.270 OA
ATOM     31  H   UNL     1      -2.163  -0.819   0.443  0.00  0.00    +0.157 HD
BRANCH  29  32
ATOM     32  C   UNL     1      -4.529  -0.148  -0.673  0.00  0.00    +0.045 A 
ATOM     33  C   UNL     1      -4.340  -1.334  -1.397  0.00  0.00    -0.049 A 
ATOM     34  C   UNL     1      -5.416  -2.162  -1.704  0.00  0.00    -0.060 A 
ATOM     35  C   UNL     1      -6.703  -1.825  -1.295  0.00  0.00    -0.053 A 
ATOM     36  C   UNL     1      -6.934  -0.655  -0.548  0.00  0.00    +0.001 A 
ATOM     37  C   UNL     1      -5.834   0.192  -0.219  0.00  0.00    -0.004 A 
ATOM     38  C   UNL     1      -6.070   1.328   0.584  0.00  0.00    -0.053 A 
ATOM     39  C   UNL     1      -7.359   1.644   1.011  0.00  0.00    -0.060 A 
ATOM     40  C   UNL     1      -8.435   0.834   0.660  0.00  0.00    -0.043 A 
ATOM     41  C   UNL     1      -8.236  -0.315  -0.110  0.00  0.00    +0.049 A 
ATOM     42 CL   UNL     1      -9.649  -1.297  -0.491  0.00  0.00    -0.083 Cl
ATOM     43  H   UNL     1      -3.354  -1.610  -1.751  0.00  0.00    +0.063 HD
ATOM     44  H   UNL     1      -5.252  -3.068  -2.274  0.00  0.00    +0.062 HD
ATOM     45  H   UNL     1      -7.511  -2.493  -1.561  0.00  0.00    +0.062 HD
ATOM     46  H   UNL     1      -5.266   1.971   0.911  0.00  0.00    +0.062 HD
ATOM     47  H   UNL     1      -7.524   2.521   1.623  0.00  0.00    +0.062 HD
ATOM     48  H   UNL     1      -9.429   1.095   0.999  0.00  0.00    +0.063 HD
ENDBRANCH  29  32
ENDBRANCH  26  28
ENDBRANCH   1  26
TORSDOF 5
