REMARK  Name = 
REMARK  6 active torsions:
REMARK  status: ('A' for Active; 'I' for Inactive)
REMARK    1  A    between atoms: C_1  and  O_2
REMARK    2  A    between atoms: O_2  and  C_3
REMARK    3  A    between atoms: C_8  and  C_9
REMARK    4  A    between atoms: N_11  and  C_12
REMARK    5  A    between atoms: C_15  and  N_18
REMARK    6  A    between atoms: C_24  and  C_26
REMARK                            x       y       z     vdW  Elec       q    Type
REMARK                         _______ _______ _______ _____ _____    ______ ____
ROOT
ATOM      1  C   UNL     1      -2.055   0.096   0.176  0.00  0.00    +0.034 A 
ATOM      2  C   UNL     1      -1.302   0.367   1.330  0.00  0.00    -0.039 A 
ATOM      3  C   UNL     1       0.080   0.159   1.337  0.00  0.00    -0.039 A 
ATOM      4  C   UNL     1       0.740  -0.310   0.186  0.00  0.00    +0.030 A 
ATOM      5  C   UNL     1      -0.016  -0.559  -0.973  0.00  0.00    -0.039 A 
ATOM      6  C   UNL     1      -1.398  -0.348  -0.979  0.00  0.00    -0.039 A 
ATOM      7  H   UNL     1      -1.773   0.764   2.219  0.00  0.00    +0.064 HD
ATOM      8  H   UNL     1       0.632   0.358   2.247  0.00  0.00    +0.064 HD
ATOM      9  H   UNL     1       0.462  -0.903  -1.880  0.00  0.00    +0.064 HD
ATOM     10  H   UNL     1      -1.961  -0.540  -1.883  0.00  0.00    +0.064 HD
ENDROOT
BRANCH   4  11
ATOM     11  N   UNL     1       2.168  -0.531   0.193  0.00  0.00    -0.327 N 
ATOM     12  C   UNL     1       2.728  -1.688  -0.523  0.00  0.00    +0.028 C 
ATOM     13  C   UNL     1       4.134  -2.035  -0.022  0.00  0.00    +0.031 C 
ATOM     14  N   UNL     1       4.993  -0.843  -0.018  0.00  0.00    -0.292 N 
ATOM     15  C   UNL     1       4.425   0.467   0.339  0.00  0.00    +0.031 C 
ATOM     16  C   UNL     1       3.048   0.327   0.998  0.00  0.00    +0.028 C 
ATOM     17  C   UNL     1       6.418  -1.003  -0.189  0.00  0.00    +0.282 C 
ATOM     18  O   UNL     1       6.946  -2.129   0.025  0.00  0.00    -0.267 OA
ATOM     19  H   UNL     1       2.776  -1.459  -1.609  0.00  0.00    +0.048 HD
ATOM     20  H   UNL     1       2.074  -2.576  -0.376  0.00  0.00    +0.048 HD
ATOM     21  H   UNL     1       4.557  -2.819  -0.688  0.00  0.00    +0.048 HD
ATOM     22  H   UNL     1       4.074  -2.447   1.009  0.00  0.00    +0.048 HD
ATOM     23  H   UNL     1       5.098   0.991   1.052  0.00  0.00    +0.048 HD
ATOM     24  H   UNL     1       4.323   1.083  -0.580  0.00  0.00    +0.048 HD
ATOM     25  H   UNL     1       3.162  -0.113   2.012  0.00  0.00    +0.048 HD
ATOM     26  H   UNL     1       2.609   1.344   1.103  0.00  0.00    +0.048 HD
BRANCH  17  27
ATOM     27  C   UNL     1       7.285   0.112  -0.621  0.00  0.00    +0.189 A 
ATOM     28  C   UNL     1       8.666   0.080  -0.677  0.00  0.00    -0.011 A 
ATOM     29  C   UNL     1       9.051   1.319  -1.142  0.00  0.00    -0.023 A 
ATOM     30  C   UNL     1       7.886   2.030  -1.344  0.00  0.00    +0.093 A 
ATOM     31  O   UNL     1       6.853   1.284  -1.026  0.00  0.00    -0.458 OA
ATOM     32  H   UNL     1       9.316  -0.744  -0.412  0.00  0.00    +0.066 HD
ATOM     33  H   UNL     1      10.062   1.663  -1.315  0.00  0.00    +0.065 HD
ATOM     34  H   UNL     1       7.818   3.046  -1.708  0.00  0.00    +0.103 HD
ENDBRANCH  17  27
ENDBRANCH   4  11
BRANCH   1  37
ATOM     35  C   UNL     1      -4.373   0.019   1.213  0.00  0.00    +0.252 C 
ATOM     36  O   UNL     1      -3.936  -0.478   2.286  0.00  0.00    -0.270 OA
ATOM     37  N   UNL     1      -3.473   0.327   0.133  0.00  0.00    -0.281 N 
ATOM     38  H   UNL     1      -3.872   0.685  -0.764  0.00  0.00    +0.155 HD
BRANCH  35  44
ATOM     39  C   UNL     1      -6.540  -0.080  -0.075  0.00  0.00    +0.132 A 
ATOM     40  C   UNL     1      -7.916   0.213  -0.153  0.00  0.00    -0.018 A 
ATOM     41  C   UNL     1      -8.571   0.833   0.913  0.00  0.00    -0.040 A 
ATOM     42  C   UNL     1      -7.866   1.164   2.071  0.00  0.00    +0.042 A 
ATOM     43  C   UNL     1      -6.500   0.887   2.160  0.00  0.00    -0.028 A 
ATOM     44  C   UNL     1      -5.822   0.284   1.086  0.00  0.00    +0.080 A 
ATOM     45 CL   UNL     1      -8.695   1.932   3.413  0.00  0.00    -0.084 Cl
ATOM     46  H   UNL     1      -8.493  -0.044  -1.031  0.00  0.00    +0.065 HD
ATOM     47  H   UNL     1      -9.629   1.048   0.841  0.00  0.00    +0.063 HD
ATOM     48  H   UNL     1      -5.961   1.157   3.060  0.00  0.00    +0.064 HD
BRANCH  39  49
ATOM     49  O   UNL     1      -5.871  -0.751  -1.113  0.00  0.00    -0.494 OA
BRANCH  49  50
ATOM     50  C   UNL     1      -6.478  -1.168  -2.332  0.00  0.00    +0.079 C 
ATOM     51  H   UNL     1      -6.876  -0.288  -2.880  0.00  0.00    +0.066 HD
ATOM     52  H   UNL     1      -5.714  -1.663  -2.965  0.00  0.00    +0.066 HD
ATOM     53  H   UNL     1      -7.293  -1.893  -2.125  0.00  0.00    +0.066 HD
ENDBRANCH  49  50
ENDBRANCH  39  49
ENDBRANCH  35  44
ENDBRANCH   1  37
TORSDOF 6
