REMARK  Name = 
REMARK  6 active torsions:
REMARK  status: ('A' for Active; 'I' for Inactive)
REMARK    1  A    between atoms: C_1  and  O_2
REMARK    2  A    between atoms: O_2  and  C_3
REMARK    3  A    between atoms: C_8  and  C_9
REMARK    4  A    between atoms: N_11  and  C_12
REMARK    5  A    between atoms: C_15  and  N_18
REMARK    6  A    between atoms: C_24  and  C_26
REMARK                            x       y       z     vdW  Elec       q    Type
REMARK                         _______ _______ _______ _____ _____    ______ ____
ROOT
ATOM      1  C   UNL     1      -2.145   0.275  -0.770  0.00  0.00    +0.034 A 
ATOM      2  C   UNL     1      -1.506   0.864   0.334  0.00  0.00    -0.039 A 
ATOM      3  C   UNL     1      -0.110   0.894   0.411  0.00  0.00    -0.039 A 
ATOM      4  C   UNL     1       0.675   0.327  -0.609  0.00  0.00    +0.030 A 
ATOM      5  C   UNL     1       0.030  -0.283  -1.700  0.00  0.00    -0.039 A 
ATOM      6  C   UNL     1      -1.365  -0.314  -1.774  0.00  0.00    -0.039 A 
ATOM      7  H   UNL     1      -2.081   1.283   1.149  0.00  0.00    +0.064 HD
ATOM      8  H   UNL     1       0.353   1.366   1.266  0.00  0.00    +0.064 HD
ATOM      9  H   UNL     1       0.604  -0.753  -2.487  0.00  0.00    +0.064 HD
ATOM     10  H   UNL     1      -1.840  -0.793  -2.621  0.00  0.00    +0.064 HD
ENDROOT
BRANCH   4  11
ATOM     11  N   UNL     1       2.118   0.355  -0.527  0.00  0.00    -0.327 N 
ATOM     12  C   UNL     1       2.775   0.135   0.772  0.00  0.00    +0.028 C 
ATOM     13  C   UNL     1       4.250  -0.236   0.600  0.00  0.00    +0.031 C 
ATOM     14  N   UNL     1       4.915   0.733  -0.281  0.00  0.00    -0.292 N 
ATOM     15  C   UNL     1       4.223   1.239  -1.474  0.00  0.00    +0.031 C 
ATOM     16  C   UNL     1       2.927   0.467  -1.750  0.00  0.00    +0.028 C 
ATOM     17  C   UNL     1       6.205   1.278   0.055  0.00  0.00    +0.282 C 
ATOM     18  O   UNL     1       6.443   2.494  -0.176  0.00  0.00    -0.267 OA
ATOM     19  H   UNL     1       2.265  -0.689   1.318  0.00  0.00    +0.048 HD
ATOM     20  H   UNL     1       2.705   1.062   1.381  0.00  0.00    +0.048 HD
ATOM     21  H   UNL     1       4.731  -0.257   1.603  0.00  0.00    +0.048 HD
ATOM     22  H   UNL     1       4.322  -1.250   0.151  0.00  0.00    +0.048 HD
ATOM     23  H   UNL     1       3.979   2.314  -1.327  0.00  0.00    +0.048 HD
ATOM     24  H   UNL     1       4.890   1.147  -2.359  0.00  0.00    +0.048 HD
ATOM     25  H   UNL     1       3.171  -0.551  -2.122  0.00  0.00    +0.048 HD
ATOM     26  H   UNL     1       2.363   1.006  -2.543  0.00  0.00    +0.048 HD
BRANCH  17  27
ATOM     27  C   UNL     1       7.272   0.456   0.655  0.00  0.00    +0.189 A 
ATOM     28  C   UNL     1       7.364  -0.923   0.643  0.00  0.00    -0.011 A 
ATOM     29  C   UNL     1       8.537  -1.225   1.300  0.00  0.00    -0.023 A 
ATOM     30  C   UNL     1       9.092  -0.016   1.666  0.00  0.00    +0.093 A 
ATOM     31  O   UNL     1       8.318   0.966   1.265  0.00  0.00    -0.458 OA
ATOM     32  H   UNL     1       6.683  -1.630   0.189  0.00  0.00    +0.066 HD
ATOM     33  H   UNL     1       8.947  -2.209   1.480  0.00  0.00    +0.065 HD
ATOM     34  H   UNL     1      10.024   0.119   2.200  0.00  0.00    +0.103 HD
ENDBRANCH  17  27
ENDBRANCH   4  11
BRANCH   1  37
ATOM     35  C   UNL     1      -4.463   1.194  -0.298  0.00  0.00    +0.252 C 
ATOM     36  O   UNL     1      -4.041   2.361  -0.076  0.00  0.00    -0.270 OA
ATOM     37  N   UNL     1      -3.579   0.209  -0.859  0.00  0.00    -0.281 N 
ATOM     38  H   UNL     1      -4.001  -0.544  -1.448  0.00  0.00    +0.155 HD
BRANCH  35  44
ATOM     39  C   UNL     1      -6.294  -0.414   0.368  0.00  0.00    +0.132 A 
ATOM     40  C   UNL     1      -7.665  -0.672   0.576  0.00  0.00    -0.018 A 
ATOM     41  C   UNL     1      -8.611   0.338   0.396  0.00  0.00    -0.040 A 
ATOM     42  C   UNL     1      -8.208   1.616   0.011  0.00  0.00    +0.042 A 
ATOM     43  C   UNL     1      -6.854   1.885  -0.206  0.00  0.00    -0.028 A 
ATOM     44  C   UNL     1      -5.888   0.875  -0.046  0.00  0.00    +0.080 A 
ATOM     45 CL   UNL     1      -9.401   2.884  -0.207  0.00  0.00    -0.084 Cl
ATOM     46  H   UNL     1      -8.009  -1.648   0.887  0.00  0.00    +0.065 HD
ATOM     47  H   UNL     1      -9.660   0.126   0.563  0.00  0.00    +0.063 HD
ATOM     48  H   UNL     1      -6.559   2.881  -0.516  0.00  0.00    +0.064 HD
BRANCH  39  49
ATOM     49  O   UNL     1      -5.321  -1.404   0.589  0.00  0.00    -0.494 OA
BRANCH  49  50
ATOM     50  C   UNL     1      -5.599  -2.737   1.006  0.00  0.00    +0.079 C 
ATOM     51  H   UNL     1      -6.241  -3.246   0.255  0.00  0.00    +0.066 HD
ATOM     52  H   UNL     1      -6.099  -2.731   1.997  0.00  0.00    +0.066 HD
ATOM     53  H   UNL     1      -4.645  -3.295   1.093  0.00  0.00    +0.066 HD
ENDBRANCH  49  50
ENDBRANCH  39  49
ENDBRANCH  35  44
ENDBRANCH   1  37
TORSDOF 6
