REMARK  Name = 
REMARK  6 active torsions:
REMARK  status: ('A' for Active; 'I' for Inactive)
REMARK    1  A    between atoms: C_1  and  O_2
REMARK    2  A    between atoms: O_2  and  C_3
REMARK    3  A    between atoms: C_8  and  C_9
REMARK    4  A    between atoms: N_11  and  C_12
REMARK    5  A    between atoms: C_15  and  N_18
REMARK    6  A    between atoms: C_24  and  C_26
REMARK                            x       y       z     vdW  Elec       q    Type
REMARK                         _______ _______ _______ _____ _____    ______ ____
ROOT
ATOM      1  C   UNL     1      -1.995   0.042  -0.148  0.00  0.00    +0.034 A 
ATOM      2  C   UNL     1      -1.125  -0.709  -0.957  0.00  0.00    -0.039 A 
ATOM      3  C   UNL     1       0.259  -0.621  -0.777  0.00  0.00    -0.039 A 
ATOM      4  C   UNL     1       0.796   0.227   0.206  0.00  0.00    +0.030 A 
ATOM      5  C   UNL     1      -0.074   0.996   0.995  0.00  0.00    -0.039 A 
ATOM      6  C   UNL     1      -1.457   0.909   0.813  0.00  0.00    -0.039 A 
ATOM      7  H   UNL     1      -1.508  -1.342  -1.745  0.00  0.00    +0.064 HD
ATOM      8  H   UNL     1       0.911  -1.218  -1.402  0.00  0.00    +0.064 HD
ATOM      9  H   UNL     1       0.321   1.675   1.739  0.00  0.00    +0.064 HD
ATOM     10  H   UNL     1      -2.113   1.513   1.427  0.00  0.00    +0.064 HD
ENDROOT
BRANCH   4  11
ATOM     11  N   UNL     1       2.220   0.325   0.395  0.00  0.00    -0.327 N 
ATOM     12  C   UNL     1       2.803   0.057   1.716  0.00  0.00    +0.028 C 
ATOM     13  C   UNL     1       3.964   1.016   1.982  0.00  0.00    +0.031 C 
ATOM     14  N   UNL     1       4.870   1.038   0.830  0.00  0.00    -0.292 N 
ATOM     15  C   UNL     1       4.288   1.310  -0.490  0.00  0.00    +0.031 C 
ATOM     16  C   UNL     1       3.125   0.355  -0.760  0.00  0.00    +0.028 C 
ATOM     17  C   UNL     1       6.275   1.250   1.044  0.00  0.00    +0.282 C 
ATOM     18  O   UNL     1       6.657   2.055   1.935  0.00  0.00    -0.267 OA
ATOM     19  H   UNL     1       3.176  -0.990   1.741  0.00  0.00    +0.048 HD
ATOM     20  H   UNL     1       2.048   0.168   2.523  0.00  0.00    +0.048 HD
ATOM     21  H   UNL     1       3.570   2.040   2.161  0.00  0.00    +0.048 HD
ATOM     22  H   UNL     1       4.502   0.681   2.896  0.00  0.00    +0.048 HD
ATOM     23  H   UNL     1       3.916   2.358  -0.512  0.00  0.00    +0.048 HD
ATOM     24  H   UNL     1       5.044   1.203  -1.296  0.00  0.00    +0.048 HD
ATOM     25  H   UNL     1       2.587   0.700  -1.671  0.00  0.00    +0.048 HD
ATOM     26  H   UNL     1       3.516  -0.668  -0.948  0.00  0.00    +0.048 HD
BRANCH  17  27
ATOM     27  C   UNL     1       7.285   0.524   0.258  0.00  0.00    +0.189 A 
ATOM     28  C   UNL     1       7.057  -0.562  -0.567  0.00  0.00    -0.011 A 
ATOM     29  C   UNL     1       8.292  -0.911  -1.071  0.00  0.00    -0.023 A 
ATOM     30  C   UNL     1       9.195  -0.023  -0.521  0.00  0.00    +0.093 A 
ATOM     31  O   UNL     1       8.565   0.817   0.268  0.00  0.00    -0.458 OA
ATOM     32  H   UNL     1       6.114  -1.052  -0.769  0.00  0.00    +0.066 HD
ATOM     33  H   UNL     1       8.510  -1.721  -1.753  0.00  0.00    +0.065 HD
ATOM     34  H   UNL     1      10.261  -0.010  -0.701  0.00  0.00    +0.103 HD
ENDBRANCH  17  27
ENDBRANCH   4  11
BRANCH   1  37
ATOM     35  C   UNL     1      -4.155  -1.216  -0.602  0.00  0.00    +0.252 C 
ATOM     36  O   UNL     1      -3.555  -2.320  -0.705  0.00  0.00    -0.270 OA
ATOM     37  N   UNL     1      -3.420  -0.009  -0.329  0.00  0.00    -0.281 N 
ATOM     38  H   UNL     1      -3.951   0.880  -0.194  0.00  0.00    +0.155 HD
BRANCH  35  44
ATOM     39  C   UNL     1      -6.453  -0.467   0.122  0.00  0.00    +0.132 A 
ATOM     40  C   UNL     1      -7.846  -0.451  -0.096  0.00  0.00    -0.018 A 
ATOM     41  C   UNL     1      -8.404  -1.154  -1.166  0.00  0.00    -0.040 A 
ATOM     42  C   UNL     1      -7.586  -1.884  -2.028  0.00  0.00    +0.042 A 
ATOM     43  C   UNL     1      -6.203  -1.903  -1.830  0.00  0.00    -0.028 A 
ATOM     44  C   UNL     1      -5.624  -1.183  -0.771  0.00  0.00    +0.080 A 
ATOM     45 CL   UNL     1      -8.293  -2.774  -3.364  0.00  0.00    -0.084 Cl
ATOM     46  H   UNL     1      -8.508   0.092   0.563  0.00  0.00    +0.065 HD
ATOM     47  H   UNL     1      -9.476  -1.136  -1.318  0.00  0.00    +0.063 HD
ATOM     48  H   UNL     1      -5.577  -2.465  -2.512  0.00  0.00    +0.064 HD
BRANCH  39  49
ATOM     49  O   UNL     1      -5.874   0.187   1.222  0.00  0.00    -0.494 OA
BRANCH  49  50
ATOM     50  C   UNL     1      -6.596   0.941   2.189  0.00  0.00    +0.079 C 
ATOM     51  H   UNL     1      -7.120   1.789   1.699  0.00  0.00    +0.066 HD
ATOM     52  H   UNL     1      -7.327   0.289   2.713  0.00  0.00    +0.066 HD
ATOM     53  H   UNL     1      -5.885   1.348   2.936  0.00  0.00    +0.066 HD
ENDBRANCH  49  50
ENDBRANCH  39  49
ENDBRANCH  35  44
ENDBRANCH   1  37
TORSDOF 6
