REMARK  Name = 
REMARK  6 active torsions:
REMARK  status: ('A' for Active; 'I' for Inactive)
REMARK    1  A    between atoms: C_1  and  O_2
REMARK    2  A    between atoms: O_2  and  C_3
REMARK    3  A    between atoms: C_8  and  C_9
REMARK    4  A    between atoms: N_11  and  C_12
REMARK    5  A    between atoms: C_15  and  N_18
REMARK    6  A    between atoms: C_24  and  C_26
REMARK                            x       y       z     vdW  Elec       q    Type
REMARK                         _______ _______ _______ _____ _____    ______ ____
ROOT
ATOM      1  C   UNL     1       1.746   0.102  -0.417  0.00  0.00    +0.034 A 
ATOM      2  C   UNL     1       0.897   0.968  -1.121  0.00  0.00    -0.039 A 
ATOM      3  C   UNL     1      -0.347   1.325  -0.595  0.00  0.00    -0.039 A 
ATOM      4  C   UNL     1      -0.758   0.835   0.656  0.00  0.00    +0.030 A 
ATOM      5  C   UNL     1       0.098  -0.021   1.368  0.00  0.00    -0.039 A 
ATOM      6  C   UNL     1       1.343  -0.378   0.841  0.00  0.00    -0.039 A 
ATOM      7  H   UNL     1       1.195   1.357  -2.087  0.00  0.00    +0.064 HD
ATOM      8  H   UNL     1      -0.998   1.970  -1.171  0.00  0.00    +0.064 HD
ATOM      9  H   UNL     1      -0.187  -0.396   2.342  0.00  0.00    +0.064 HD
ATOM     10  H   UNL     1       1.996  -1.007   1.430  0.00  0.00    +0.064 HD
ENDROOT
BRANCH   4  11
ATOM     11  N   UNL     1      -2.046   1.191   1.193  0.00  0.00    -0.327 N 
ATOM     12  C   UNL     1      -2.947   0.135   1.679  0.00  0.00    +0.028 C 
ATOM     13  C   UNL     1      -4.351   0.680   1.976  0.00  0.00    +0.031 C 
ATOM     14  N   UNL     1      -4.764   1.621   0.925  0.00  0.00    -0.292 N 
ATOM     15  C   UNL     1      -3.856   2.697   0.500  0.00  0.00    +0.031 C 
ATOM     16  C   UNL     1      -2.496   2.590   1.197  0.00  0.00    +0.028 C 
ATOM     17  C   UNL     1      -6.125   1.642   0.463  0.00  0.00    +0.282 C 
ATOM     18  O   UNL     1      -6.765   2.727   0.461  0.00  0.00    -0.267 OA
ATOM     19  H   UNL     1      -3.029  -0.656   0.903  0.00  0.00    +0.048 HD
ATOM     20  H   UNL     1      -2.534  -0.323   2.603  0.00  0.00    +0.048 HD
ATOM     21  H   UNL     1      -5.065  -0.165   2.072  0.00  0.00    +0.048 HD
ATOM     22  H   UNL     1      -4.340   1.214   2.951  0.00  0.00    +0.048 HD
ATOM     23  H   UNL     1      -3.703   2.626  -0.598  0.00  0.00    +0.048 HD
ATOM     24  H   UNL     1      -4.303   3.688   0.731  0.00  0.00    +0.048 HD
ATOM     25  H   UNL     1      -2.593   2.933   2.250  0.00  0.00    +0.048 HD
ATOM     26  H   UNL     1      -1.763   3.261   0.700  0.00  0.00    +0.048 HD
BRANCH  17  27
ATOM     27  C   UNL     1      -6.788   0.426  -0.037  0.00  0.00    +0.189 A 
ATOM     28  C   UNL     1      -6.173  -0.760  -0.393  0.00  0.00    -0.011 A 
ATOM     29  C   UNL     1      -7.187  -1.591  -0.818  0.00  0.00    -0.023 A 
ATOM     30  C   UNL     1      -8.354  -0.864  -0.700  0.00  0.00    +0.093 A 
ATOM     31  O   UNL     1      -8.083   0.334  -0.236  0.00  0.00    -0.458 OA
ATOM     32  H   UNL     1      -5.117  -0.990  -0.369  0.00  0.00    +0.066 HD
ATOM     33  H   UNL     1      -7.087  -2.606  -1.179  0.00  0.00    +0.065 HD
ATOM     34  H   UNL     1      -9.347  -1.212  -0.951  0.00  0.00    +0.103 HD
ENDBRANCH  17  27
ENDBRANCH   4  11
BRANCH   1  37
ATOM     35  C   UNL     1       3.717  -1.468  -0.717  0.00  0.00    +0.252 C 
ATOM     36  O   UNL     1       3.063  -2.485  -0.355  0.00  0.00    -0.270 OA
ATOM     37  N   UNL     1       3.031  -0.231  -0.970  0.00  0.00    -0.281 N 
ATOM     38  H   UNL     1       3.448   0.420  -1.674  0.00  0.00    +0.155 HD
BRANCH  35  44
ATOM     39  C   UNL     1       6.052  -0.503  -0.704  0.00  0.00    +0.132 A 
ATOM     40  C   UNL     1       7.429  -0.660  -0.959  0.00  0.00    -0.018 A 
ATOM     41  C   UNL     1       7.931  -1.876  -1.425  0.00  0.00    -0.040 A 
ATOM     42  C   UNL     1       7.070  -2.952  -1.642  0.00  0.00    +0.042 A 
ATOM     43  C   UNL     1       5.701  -2.810  -1.402  0.00  0.00    -0.028 A 
ATOM     44  C   UNL     1       5.176  -1.586  -0.948  0.00  0.00    +0.080 A 
ATOM     45 CL   UNL     1       7.706  -4.481  -2.222  0.00  0.00    -0.084 Cl
ATOM     46  H   UNL     1       8.125   0.151  -0.789  0.00  0.00    +0.065 HD
ATOM     47  H   UNL     1       8.992  -1.982  -1.613  0.00  0.00    +0.063 HD
ATOM     48  H   UNL     1       5.045  -3.652  -1.586  0.00  0.00    +0.064 HD
BRANCH  39  49
ATOM     49  O   UNL     1       5.534   0.698  -0.190  0.00  0.00    -0.494 OA
BRANCH  49  50
ATOM     50  C   UNL     1       6.307   1.859   0.097  0.00  0.00    +0.079 C 
ATOM     51  H   UNL     1       5.637   2.653   0.484  0.00  0.00    +0.066 HD
ATOM     52  H   UNL     1       6.798   2.228  -0.828  0.00  0.00    +0.066 HD
ATOM     53  H   UNL     1       7.070   1.628   0.870  0.00  0.00    +0.066 HD
ENDBRANCH  49  50
ENDBRANCH  39  49
ENDBRANCH  35  44
ENDBRANCH   1  37
TORSDOF 6
