REMARK  Name = 
REMARK  6 active torsions:
REMARK  status: ('A' for Active; 'I' for Inactive)
REMARK    1  A    between atoms: C_1  and  O_2
REMARK    2  A    between atoms: O_2  and  C_3
REMARK    3  A    between atoms: C_8  and  C_9
REMARK    4  A    between atoms: N_11  and  C_12
REMARK    5  A    between atoms: C_15  and  N_18
REMARK    6  A    between atoms: C_24  and  C_26
REMARK                            x       y       z     vdW  Elec       q    Type
REMARK                         _______ _______ _______ _____ _____    ______ ____
ROOT
ATOM      1  C   UNL     1      -1.930  -0.122  -0.393  0.00  0.00    +0.034 A 
ATOM      2  C   UNL     1      -0.933   0.704  -0.930  0.00  0.00    -0.039 A 
ATOM      3  C   UNL     1       0.392   0.589  -0.500  0.00  0.00    -0.039 A 
ATOM      4  C   UNL     1       0.739  -0.345   0.489  0.00  0.00    +0.030 A 
ATOM      5  C   UNL     1      -0.261  -1.161   1.040  0.00  0.00    -0.039 A 
ATOM      6  C   UNL     1      -1.586  -1.046   0.610  0.00  0.00    -0.039 A 
ATOM      7  H   UNL     1      -1.181   1.430  -1.694  0.00  0.00    +0.064 HD
ATOM      8  H   UNL     1       1.150   1.217  -0.950  0.00  0.00    +0.064 HD
ATOM      9  H   UNL     1      -0.021  -1.871   1.821  0.00  0.00    +0.064 HD
ATOM     10  H   UNL     1      -2.342  -1.661   1.080  0.00  0.00    +0.064 HD
ENDROOT
BRANCH   4  11
ATOM     11  N   UNL     1       2.106  -0.471   0.925  0.00  0.00    -0.327 N 
ATOM     12  C   UNL     1       2.878   0.713   1.314  0.00  0.00    +0.028 C 
ATOM     13  C   UNL     1       4.199   0.732   0.543  0.00  0.00    +0.031 C 
ATOM     14  N   UNL     1       4.899  -0.562   0.639  0.00  0.00    -0.292 N 
ATOM     15  C   UNL     1       4.238  -1.704   1.293  0.00  0.00    +0.031 C 
ATOM     16  C   UNL     1       2.758  -1.788   0.892  0.00  0.00    +0.028 C 
ATOM     17  C   UNL     1       6.306  -0.654   0.321  0.00  0.00    +0.282 C 
ATOM     18  O   UNL     1       7.009  -1.547   0.868  0.00  0.00    -0.267 OA
ATOM     19  H   UNL     1       3.086   0.669   2.405  0.00  0.00    +0.048 HD
ATOM     20  H   UNL     1       2.317   1.652   1.120  0.00  0.00    +0.048 HD
ATOM     21  H   UNL     1       3.978   0.952  -0.523  0.00  0.00    +0.048 HD
ATOM     22  H   UNL     1       4.839   1.542   0.957  0.00  0.00    +0.048 HD
ATOM     23  H   UNL     1       4.320  -1.589   2.396  0.00  0.00    +0.048 HD
ATOM     24  H   UNL     1       4.729  -2.660   1.008  0.00  0.00    +0.048 HD
ATOM     25  H   UNL     1       2.241  -2.488   1.582  0.00  0.00    +0.048 HD
ATOM     26  H   UNL     1       2.689  -2.198  -0.139  0.00  0.00    +0.048 HD
BRANCH  17  27
ATOM     27  C   UNL     1       6.957   0.264  -0.637  0.00  0.00    +0.189 A 
ATOM     28  C   UNL     1       8.315   0.324  -0.893  0.00  0.00    -0.011 A 
ATOM     29  C   UNL     1       8.473   1.301  -1.852  0.00  0.00    -0.023 A 
ATOM     30  C   UNL     1       7.207   1.776  -2.126  0.00  0.00    +0.093 A 
ATOM     31  O   UNL     1       6.327   1.138  -1.389  0.00  0.00    -0.458 OA
ATOM     32  H   UNL     1       9.097  -0.270  -0.438  0.00  0.00    +0.066 HD
ATOM     33  H   UNL     1       9.402   1.628  -2.300  0.00  0.00    +0.065 HD
ATOM     34  H   UNL     1       6.961   2.553  -2.836  0.00  0.00    +0.103 HD
ENDBRANCH  17  27
ENDBRANCH   4  11
BRANCH   1  37
ATOM     35  C   UNL     1      -4.253  -1.033  -0.852  0.00  0.00    +0.252 C 
ATOM     36  O   UNL     1      -3.863  -2.232  -0.887  0.00  0.00    -0.270 OA
ATOM     37  N   UNL     1      -3.290   0.033  -0.836  0.00  0.00    -0.281 N 
ATOM     38  H   UNL     1      -3.567   0.947  -1.261  0.00  0.00    +0.155 HD
BRANCH  35  44
ATOM     39  C   UNL     1      -6.255   0.384  -0.245  0.00  0.00    +0.132 A 
ATOM     40  C   UNL     1      -7.640   0.630  -0.341  0.00  0.00    -0.018 A 
ATOM     41  C   UNL     1      -8.466  -0.235  -1.061  0.00  0.00    -0.040 A 
ATOM     42  C   UNL     1      -7.927  -1.357  -1.690  0.00  0.00    +0.042 A 
ATOM     43  C   UNL     1      -6.555  -1.610  -1.610  0.00  0.00    -0.028 A 
ATOM     44  C   UNL     1      -5.706  -0.740  -0.904  0.00  0.00    +0.080 A 
ATOM     45 CL   UNL     1      -8.970  -2.445  -2.587  0.00  0.00    -0.084 Cl
ATOM     46  H   UNL     1      -8.091   1.484   0.145  0.00  0.00    +0.065 HD
ATOM     47  H   UNL     1      -9.528  -0.035  -1.123  0.00  0.00    +0.063 HD
ATOM     48  H   UNL     1      -6.151  -2.480  -2.114  0.00  0.00    +0.064 HD
BRANCH  39  49
ATOM     49  O   UNL     1      -5.415   1.217   0.513  0.00  0.00    -0.494 OA
BRANCH  49  50
ATOM     50  C   UNL     1      -5.843   2.376   1.221  0.00  0.00    +0.079 C 
ATOM     51  H   UNL     1      -4.968   2.838   1.722  0.00  0.00    +0.066 HD
ATOM     52  H   UNL     1      -6.280   3.114   0.515  0.00  0.00    +0.066 HD
ATOM     53  H   UNL     1      -6.590   2.096   1.994  0.00  0.00    +0.066 HD
ENDBRANCH  49  50
ENDBRANCH  39  49
ENDBRANCH  35  44
ENDBRANCH   1  37
TORSDOF 6
