REMARK  Name = 
REMARK  6 active torsions:
REMARK  status: ('A' for Active; 'I' for Inactive)
REMARK    1  A    between atoms: C_1  and  O_2
REMARK    2  A    between atoms: O_2  and  C_3
REMARK    3  A    between atoms: C_8  and  C_9
REMARK    4  A    between atoms: N_11  and  C_12
REMARK    5  A    between atoms: C_15  and  N_18
REMARK    6  A    between atoms: C_24  and  C_26
REMARK                            x       y       z     vdW  Elec       q    Type
REMARK                         _______ _______ _______ _____ _____    ______ ____
ROOT
ATOM      1  C   UNL     1       2.152  -0.247  -0.245  0.00  0.00    +0.034 A 
ATOM      2  C   UNL     1       1.459  -1.454  -0.077  0.00  0.00    -0.039 A 
ATOM      3  C   UNL     1       0.075  -1.458   0.116  0.00  0.00    -0.039 A 
ATOM      4  C   UNL     1      -0.644  -0.250   0.158  0.00  0.00    +0.030 A 
ATOM      5  C   UNL     1       0.057   0.961   0.016  0.00  0.00    -0.039 A 
ATOM      6  C   UNL     1       1.441   0.963  -0.179  0.00  0.00    -0.039 A 
ATOM      7  H   UNL     1       1.993  -2.395  -0.102  0.00  0.00    +0.064 HD
ATOM      8  H   UNL     1      -0.430  -2.405   0.251  0.00  0.00    +0.064 HD
ATOM      9  H   UNL     1      -0.465   1.908   0.049  0.00  0.00    +0.064 HD
ATOM     10  H   UNL     1       1.954   1.912  -0.257  0.00  0.00    +0.064 HD
ENDROOT
BRANCH   4  11
ATOM     11  N   UNL     1      -2.075  -0.251   0.364  0.00  0.00    -0.327 N 
ATOM     12  C   UNL     1      -2.901  -1.335  -0.190  0.00  0.00    +0.028 C 
ATOM     13  C   UNL     1      -4.289  -0.815  -0.585  0.00  0.00    +0.031 C 
ATOM     14  N   UNL     1      -4.881   0.011   0.477  0.00  0.00    -0.292 N 
ATOM     15  C   UNL     1      -4.099   0.359   1.667  0.00  0.00    +0.031 C 
ATOM     16  C   UNL     1      -2.677   0.753   1.259  0.00  0.00    +0.028 C 
ATOM     17  C   UNL     1      -6.166   0.616   0.268  0.00  0.00    +0.282 C 
ATOM     18  O   UNL     1      -6.276   1.871   0.313  0.00  0.00    -0.267 OA
ATOM     19  H   UNL     1      -3.007  -2.139   0.570  0.00  0.00    +0.048 HD
ATOM     20  H   UNL     1      -2.421  -1.768  -1.095  0.00  0.00    +0.048 HD
ATOM     21  H   UNL     1      -4.194  -0.201  -1.508  0.00  0.00    +0.048 HD
ATOM     22  H   UNL     1      -4.942  -1.681  -0.813  0.00  0.00    +0.048 HD
ATOM     23  H   UNL     1      -4.059  -0.521   2.345  0.00  0.00    +0.048 HD
ATOM     24  H   UNL     1      -4.568   1.198   2.227  0.00  0.00    +0.048 HD
ATOM     25  H   UNL     1      -2.060   0.858   2.177  0.00  0.00    +0.048 HD
ATOM     26  H   UNL     1      -2.714   1.734   0.739  0.00  0.00    +0.048 HD
BRANCH  17  27
ATOM     27  C   UNL     1      -7.363  -0.198   0.012  0.00  0.00    +0.189 A 
ATOM     28  C   UNL     1      -7.497  -1.556   0.236  0.00  0.00    -0.011 A 
ATOM     29  C   UNL     1      -8.789  -1.867  -0.128  0.00  0.00    -0.023 A 
ATOM     30  C   UNL     1      -9.364  -0.685  -0.547  0.00  0.00    +0.093 A 
ATOM     31  O   UNL     1      -8.491   0.291  -0.449  0.00  0.00    -0.458 OA
ATOM     32  H   UNL     1      -6.758  -2.235   0.640  0.00  0.00    +0.066 HD
ATOM     33  H   UNL     1      -9.260  -2.840  -0.085  0.00  0.00    +0.065 HD
ATOM     34  H   UNL     1     -10.379  -0.564  -0.901  0.00  0.00    +0.103 HD
ENDBRANCH  17  27
ENDBRANCH   4  11
BRANCH   1  37
ATOM     35  C   UNL     1       4.313   0.725  -1.151  0.00  0.00    +0.252 C 
ATOM     36  O   UNL     1       3.726   1.422  -2.024  0.00  0.00    -0.270 OA
ATOM     37  N   UNL     1       3.579  -0.270  -0.419  0.00  0.00    -0.281 N 
ATOM     38  H   UNL     1       4.103  -1.108  -0.079  0.00  0.00    +0.155 HD
BRANCH  35  44
ATOM     39  C   UNL     1       6.365   0.707   0.323  0.00  0.00    +0.132 A 
ATOM     40  C   UNL     1       7.760   0.859   0.461  0.00  0.00    -0.018 A 
ATOM     41  C   UNL     1       8.547   1.209  -0.637  0.00  0.00    -0.040 A 
ATOM     42  C   UNL     1       7.958   1.415  -1.885  0.00  0.00    +0.042 A 
ATOM     43  C   UNL     1       6.579   1.262  -2.039  0.00  0.00    -0.028 A 
ATOM     44  C   UNL     1       5.772   0.892  -0.947  0.00  0.00    +0.080 A 
ATOM     45 CL   UNL     1       8.951   1.862  -3.260  0.00  0.00    -0.084 Cl
ATOM     46  H   UNL     1       8.246   0.719   1.417  0.00  0.00    +0.065 HD
ATOM     47  H   UNL     1       9.617   1.325  -0.515  0.00  0.00    +0.063 HD
ATOM     48  H   UNL     1       6.138   1.415  -3.017  0.00  0.00    +0.064 HD
BRANCH  39  49
ATOM     49  O   UNL     1       5.549   0.401   1.425  0.00  0.00    -0.494 OA
BRANCH  49  50
ATOM     50  C   UNL     1       6.022   0.191   2.752  0.00  0.00    +0.079 C 
ATOM     51  H   UNL     1       6.523   1.108   3.128  0.00  0.00    +0.066 HD
ATOM     52  H   UNL     1       6.726  -0.668   2.775  0.00  0.00    +0.066 HD
ATOM     53  H   UNL     1       5.160  -0.039   3.411  0.00  0.00    +0.066 HD
ENDBRANCH  49  50
ENDBRANCH  39  49
ENDBRANCH  35  44
ENDBRANCH   1  37
TORSDOF 6
