REMARK  Name = 
REMARK  6 active torsions:
REMARK  status: ('A' for Active; 'I' for Inactive)
REMARK    1  A    between atoms: C_1  and  O_2
REMARK    2  A    between atoms: O_2  and  C_3
REMARK    3  A    between atoms: C_8  and  C_9
REMARK    4  A    between atoms: N_11  and  C_12
REMARK    5  A    between atoms: C_15  and  N_18
REMARK    6  A    between atoms: C_24  and  C_26
REMARK                            x       y       z     vdW  Elec       q    Type
REMARK                         _______ _______ _______ _____ _____    ______ ____
ROOT
ATOM      1  C   UNL     1      -2.113  -0.112  -0.619  0.00  0.00    +0.034 A 
ATOM      2  C   UNL     1      -1.367   0.864  -1.295  0.00  0.00    -0.039 A 
ATOM      3  C   UNL     1       0.029   0.854  -1.240  0.00  0.00    -0.039 A 
ATOM      4  C   UNL     1       0.705  -0.128  -0.497  0.00  0.00    +0.030 A 
ATOM      5  C   UNL     1      -0.042  -1.091   0.199  0.00  0.00    -0.039 A 
ATOM      6  C   UNL     1      -1.439  -1.081   0.144  0.00  0.00    -0.039 A 
ATOM      7  H   UNL     1      -1.869   1.629  -1.874  0.00  0.00    +0.064 HD
ATOM      8  H   UNL     1       0.584   1.606  -1.786  0.00  0.00    +0.064 HD
ATOM      9  H   UNL     1       0.459  -1.837   0.804  0.00  0.00    +0.064 HD
ATOM     10  H   UNL     1      -1.988  -1.814   0.720  0.00  0.00    +0.064 HD
ENDROOT
BRANCH   4  11
ATOM     11  N   UNL     1       2.143  -0.142  -0.432  0.00  0.00    -0.327 N 
ATOM     12  C   UNL     1       2.892   1.116  -0.295  0.00  0.00    +0.028 C 
ATOM     13  C   UNL     1       4.122   0.906   0.593  0.00  0.00    +0.031 C 
ATOM     14  N   UNL     1       4.850  -0.288   0.151  0.00  0.00    -0.292 N 
ATOM     15  C   UNL     1       4.094  -1.541   0.078  0.00  0.00    +0.031 C 
ATOM     16  C   UNL     1       2.881  -1.349  -0.831  0.00  0.00    +0.028 C 
ATOM     17  C   UNL     1       6.127  -0.171  -0.500  0.00  0.00    +0.282 C 
ATOM     18  O   UNL     1       6.317  -0.738  -1.609  0.00  0.00    -0.267 OA
ATOM     19  H   UNL     1       2.254   1.904   0.163  0.00  0.00    +0.048 HD
ATOM     20  H   UNL     1       3.214   1.462  -1.301  0.00  0.00    +0.048 HD
ATOM     21  H   UNL     1       3.796   0.766   1.647  0.00  0.00    +0.048 HD
ATOM     22  H   UNL     1       4.761   1.814   0.546  0.00  0.00    +0.048 HD
ATOM     23  H   UNL     1       3.747  -1.817   1.097  0.00  0.00    +0.048 HD
ATOM     24  H   UNL     1       4.727  -2.373  -0.302  0.00  0.00    +0.048 HD
ATOM     25  H   UNL     1       2.238  -2.254  -0.775  0.00  0.00    +0.048 HD
ATOM     26  H   UNL     1       3.221  -1.236  -1.883  0.00  0.00    +0.048 HD
BRANCH  17  27
ATOM     27  C   UNL     1       7.234   0.583   0.112  0.00  0.00    +0.189 A 
ATOM     28  C   UNL     1       7.295   1.043   1.414  0.00  0.00    -0.011 A 
ATOM     29  C   UNL     1       8.518   1.668   1.530  0.00  0.00    -0.023 A 
ATOM     30  C   UNL     1       9.128   1.549   0.298  0.00  0.00    +0.093 A 
ATOM     31  O   UNL     1       8.340   0.896  -0.524  0.00  0.00    -0.458 OA
ATOM     32  H   UNL     1       6.552   0.926   2.192  0.00  0.00    +0.066 HD
ATOM     33  H   UNL     1       8.921   2.149   2.412  0.00  0.00    +0.065 HD
ATOM     34  H   UNL     1      10.106   1.929   0.035  0.00  0.00    +0.103 HD
ENDBRANCH  17  27
ENDBRANCH   4  11
BRANCH   1  37
ATOM     35  C   UNL     1      -4.393  -1.223  -0.562  0.00  0.00    +0.252 C 
ATOM     36  O   UNL     1      -3.932  -2.365  -0.838  0.00  0.00    -0.270 OA
ATOM     37  N   UNL     1      -3.550  -0.066  -0.672  0.00  0.00    -0.281 N 
ATOM     38  H   UNL     1      -4.004   0.848  -0.900  0.00  0.00    +0.155 HD
BRANCH  35  44
ATOM     39  C   UNL     1      -6.264  -0.093   0.706  0.00  0.00    +0.132 A 
ATOM     40  C   UNL     1      -7.638   0.010   1.002  0.00  0.00    -0.018 A 
ATOM     41  C   UNL     1      -8.556  -0.870   0.426  0.00  0.00    -0.040 A 
ATOM     42  C   UNL     1      -8.119  -1.865  -0.449  0.00  0.00    +0.042 A 
ATOM     43  C   UNL     1      -6.761  -1.974  -0.758  0.00  0.00    -0.028 A 
ATOM     44  C   UNL     1      -5.824  -1.085  -0.201  0.00  0.00    +0.080 A 
ATOM     45 CL   UNL     1      -9.275  -2.973  -1.165  0.00  0.00    -0.084 Cl
ATOM     46  H   UNL     1      -8.008   0.761   1.686  0.00  0.00    +0.065 HD
ATOM     47  H   UNL     1      -9.608  -0.781   0.666  0.00  0.00    +0.063 HD
ATOM     48  H   UNL     1      -6.439  -2.745  -1.449  0.00  0.00    +0.064 HD
BRANCH  39  49
ATOM     49  O   UNL     1      -5.319   0.753   1.311  0.00  0.00    -0.494 OA
BRANCH  49  50
ATOM     50  C   UNL     1      -5.632   1.788   2.237  0.00  0.00    +0.079 C 
ATOM     51  H   UNL     1      -6.300   2.537   1.762  0.00  0.00    +0.066 HD
ATOM     52  H   UNL     1      -4.694   2.294   2.545  0.00  0.00    +0.066 HD
ATOM     53  H   UNL     1      -6.117   1.360   3.140  0.00  0.00    +0.066 HD
ENDBRANCH  49  50
ENDBRANCH  39  49
ENDBRANCH  35  44
ENDBRANCH   1  37
TORSDOF 6
