REMARK  Name = 
REMARK  6 active torsions:
REMARK  status: ('A' for Active; 'I' for Inactive)
REMARK    1  A    between atoms: C_1  and  O_2
REMARK    2  A    between atoms: O_2  and  C_3
REMARK    3  A    between atoms: C_8  and  C_9
REMARK    4  A    between atoms: N_11  and  C_12
REMARK    5  A    between atoms: C_15  and  N_18
REMARK    6  A    between atoms: C_24  and  C_26
REMARK                            x       y       z     vdW  Elec       q    Type
REMARK                         _______ _______ _______ _____ _____    ______ ____
ROOT
ATOM      1  C   UNL     1      -1.944   0.776   0.762  0.00  0.00    +0.034 A 
ATOM      2  C   UNL     1      -1.296   1.919   0.270  0.00  0.00    -0.039 A 
ATOM      3  C   UNL     1       0.063   1.880  -0.052  0.00  0.00    -0.039 A 
ATOM      4  C   UNL     1       0.796   0.694   0.100  0.00  0.00    +0.030 A 
ATOM      5  C   UNL     1       0.144  -0.458   0.569  0.00  0.00    -0.039 A 
ATOM      6  C   UNL     1      -1.216  -0.419   0.893  0.00  0.00    -0.039 A 
ATOM      7  H   UNL     1      -1.846   2.843   0.141  0.00  0.00    +0.064 HD
ATOM      8  H   UNL     1       0.542   2.772  -0.436  0.00  0.00    +0.064 HD
ATOM      9  H   UNL     1       0.688  -1.386   0.690  0.00  0.00    +0.064 HD
ATOM     10  H   UNL     1      -1.699  -1.329   1.224  0.00  0.00    +0.064 HD
ENDROOT
BRANCH   4  11
ATOM     11  N   UNL     1       2.196   0.660  -0.238  0.00  0.00    -0.327 N 
ATOM     12  C   UNL     1       2.762  -0.492  -0.950  0.00  0.00    +0.028 C 
ATOM     13  C   UNL     1       3.818  -0.022  -1.951  0.00  0.00    +0.031 C 
ATOM     14  N   UNL     1       4.750   0.910  -1.304  0.00  0.00    -0.292 N 
ATOM     15  C   UNL     1       4.180   2.063  -0.601  0.00  0.00    +0.031 C 
ATOM     16  C   UNL     1       3.127   1.595   0.405  0.00  0.00    +0.028 C 
ATOM     17  C   UNL     1       6.122   0.953  -1.729  0.00  0.00    +0.282 C 
ATOM     18  O   UNL     1       6.609   2.032  -2.161  0.00  0.00    -0.267 OA
ATOM     19  H   UNL     1       3.225  -1.187  -0.215  0.00  0.00    +0.048 HD
ATOM     20  H   UNL     1       1.969  -1.042  -1.503  0.00  0.00    +0.048 HD
ATOM     21  H   UNL     1       3.318   0.496  -2.798  0.00  0.00    +0.048 HD
ATOM     22  H   UNL     1       4.351  -0.906  -2.362  0.00  0.00    +0.048 HD
ATOM     23  H   UNL     1       4.973   2.619  -0.054  0.00  0.00    +0.048 HD
ATOM     24  H   UNL     1       3.712   2.751  -1.339  0.00  0.00    +0.048 HD
ATOM     25  H   UNL     1       3.630   1.079   1.251  0.00  0.00    +0.048 HD
ATOM     26  H   UNL     1       2.595   2.480   0.813  0.00  0.00    +0.048 HD
BRANCH  17  27
ATOM     27  C   UNL     1       6.984  -0.237  -1.645  0.00  0.00    +0.189 A 
ATOM     28  C   UNL     1       6.699  -1.411  -0.974  0.00  0.00    -0.011 A 
ATOM     29  C   UNL     1       7.799  -2.221  -1.159  0.00  0.00    -0.023 A 
ATOM     30  C   UNL     1       8.686  -1.492  -1.925  0.00  0.00    +0.093 A 
ATOM     31  O   UNL     1       8.173  -0.314  -2.196  0.00  0.00    -0.458 OA
ATOM     32  H   UNL     1       5.810  -1.648  -0.406  0.00  0.00    +0.066 HD
ATOM     33  H   UNL     1       7.941  -3.222  -0.775  0.00  0.00    +0.065 HD
ATOM     34  H   UNL     1       9.660  -1.826  -2.258  0.00  0.00    +0.103 HD
ENDBRANCH  17  27
ENDBRANCH   4  11
BRANCH   1  37
ATOM     35  C   UNL     1      -3.989   0.023   2.061  0.00  0.00    +0.252 C 
ATOM     36  O   UNL     1      -3.308  -0.466   3.003  0.00  0.00    -0.270 OA
ATOM     37  N   UNL     1      -3.349   0.836   1.064  0.00  0.00    -0.281 N 
ATOM     38  H   UNL     1      -3.920   1.579   0.601  0.00  0.00    +0.155 HD
BRANCH  35  44
ATOM     39  C   UNL     1      -6.170  -0.283   0.822  0.00  0.00    +0.132 A 
ATOM     40  C   UNL     1      -7.568  -0.462   0.855  0.00  0.00    -0.018 A 
ATOM     41  C   UNL     1      -8.241  -0.565   2.073  0.00  0.00    -0.040 A 
ATOM     42  C   UNL     1      -7.534  -0.494   3.273  0.00  0.00    +0.042 A 
ATOM     43  C   UNL     1      -6.149  -0.309   3.257  0.00  0.00    -0.028 A 
ATOM     44  C   UNL     1      -5.457  -0.186   2.039  0.00  0.00    +0.080 A 
ATOM     45 CL   UNL     1      -8.384  -0.631   4.801  0.00  0.00    -0.084 Cl
ATOM     46  H   UNL     1      -8.144  -0.534  -0.057  0.00  0.00    +0.065 HD
ATOM     47  H   UNL     1      -9.315  -0.706   2.082  0.00  0.00    +0.063 HD
ATOM     48  H   UNL     1      -5.616  -0.244   4.198  0.00  0.00    +0.064 HD
BRANCH  39  49
ATOM     49  O   UNL     1      -5.468  -0.223  -0.394  0.00  0.00    -0.494 OA
BRANCH  49  50
ATOM     50  C   UNL     1      -6.067  -0.308  -1.682  0.00  0.00    +0.079 C 
ATOM     51  H   UNL     1      -6.581  -1.285  -1.801  0.00  0.00    +0.066 HD
ATOM     52  H   UNL     1      -6.788   0.525  -1.823  0.00  0.00    +0.066 HD
ATOM     53  H   UNL     1      -5.276  -0.227  -2.455  0.00  0.00    +0.066 HD
ENDBRANCH  49  50
ENDBRANCH  39  49
ENDBRANCH  35  44
ENDBRANCH   1  37
TORSDOF 6
