REMARK  Name = 
REMARK  6 active torsions:
REMARK  status: ('A' for Active; 'I' for Inactive)
REMARK    1  A    between atoms: C_1  and  O_2
REMARK    2  A    between atoms: O_2  and  C_3
REMARK    3  A    between atoms: C_8  and  C_9
REMARK    4  A    between atoms: N_11  and  C_12
REMARK    5  A    between atoms: C_15  and  N_18
REMARK    6  A    between atoms: C_24  and  C_26
REMARK                            x       y       z     vdW  Elec       q    Type
REMARK                         _______ _______ _______ _____ _____    ______ ____
ROOT
ATOM      1  C   UNL     1       2.003   0.634  -0.693  0.00  0.00    +0.034 A 
ATOM      2  C   UNL     1       1.328   0.651   0.541  0.00  0.00    -0.039 A 
ATOM      3  C   UNL     1      -0.059   0.484   0.590  0.00  0.00    -0.039 A 
ATOM      4  C   UNL     1      -0.794   0.287  -0.591  0.00  0.00    +0.030 A 
ATOM      5  C   UNL     1      -0.116   0.247  -1.819  0.00  0.00    -0.039 A 
ATOM      6  C   UNL     1       1.271   0.412  -1.868  0.00  0.00    -0.039 A 
ATOM      7  H   UNL     1       1.871   0.773   1.468  0.00  0.00    +0.064 HD
ATOM      8  H   UNL     1      -0.560   0.515   1.548  0.00  0.00    +0.064 HD
ATOM      9  H   UNL     1      -0.661   0.071  -2.738  0.00  0.00    +0.064 HD
ATOM     10  H   UNL     1       1.776   0.373  -2.825  0.00  0.00    +0.064 HD
ENDROOT
BRANCH   4  11
ATOM     11  N   UNL     1      -2.223   0.111  -0.548  0.00  0.00    -0.327 N 
ATOM     12  C   UNL     1      -2.841  -0.708   0.502  0.00  0.00    +0.028 C 
ATOM     13  C   UNL     1      -4.022  -1.491  -0.073  0.00  0.00    +0.031 C 
ATOM     14  N   UNL     1      -4.892  -0.598  -0.847  0.00  0.00    -0.292 N 
ATOM     15  C   UNL     1      -4.272   0.213  -1.899  0.00  0.00    +0.031 C 
ATOM     16  C   UNL     1      -3.094   1.000  -1.326  0.00  0.00    +0.028 C 
ATOM     17  C   UNL     1      -6.306  -0.850  -0.894  0.00  0.00    +0.282 C 
ATOM     18  O   UNL     1      -6.870  -1.042  -2.005  0.00  0.00    -0.267 OA
ATOM     19  H   UNL     1      -2.106  -1.431   0.920  0.00  0.00    +0.048 HD
ATOM     20  H   UNL     1      -3.193  -0.048   1.324  0.00  0.00    +0.048 HD
ATOM     21  H   UNL     1      -3.641  -2.294  -0.740  0.00  0.00    +0.048 HD
ATOM     22  H   UNL     1      -4.577  -1.977   0.758  0.00  0.00    +0.048 HD
ATOM     23  H   UNL     1      -3.915  -0.453  -2.715  0.00  0.00    +0.048 HD
ATOM     24  H   UNL     1      -5.008   0.930  -2.325  0.00  0.00    +0.048 HD
ATOM     25  H   UNL     1      -3.477   1.804  -0.660  0.00  0.00    +0.048 HD
ATOM     26  H   UNL     1      -2.540   1.484  -2.159  0.00  0.00    +0.048 HD
BRANCH  17  27
ATOM     27  C   UNL     1      -7.120  -0.862   0.332  0.00  0.00    +0.189 A 
ATOM     28  C   UNL     1      -6.726  -0.428   1.583  0.00  0.00    -0.011 A 
ATOM     29  C   UNL     1      -7.818  -0.615   2.402  0.00  0.00    -0.023 A 
ATOM     30  C   UNL     1      -8.810  -1.145   1.603  0.00  0.00    +0.093 A 
ATOM     31  O   UNL     1      -8.365  -1.278   0.375  0.00  0.00    -0.458 OA
ATOM     32  H   UNL     1      -5.768  -0.012   1.866  0.00  0.00    +0.066 HD
ATOM     33  H   UNL     1      -7.886  -0.386   3.457  0.00  0.00    +0.065 HD
ATOM     34  H   UNL     1      -9.808  -1.414   1.924  0.00  0.00    +0.103 HD
ENDBRANCH  17  27
ENDBRANCH   4  11
BRANCH   1  37
ATOM     35  C   UNL     1       4.209   1.549   0.163  0.00  0.00    +0.252 C 
ATOM     36  O   UNL     1       3.661   2.472   0.825  0.00  0.00    -0.270 OA
ATOM     37  N   UNL     1       3.432   0.778  -0.767  0.00  0.00    -0.281 N 
ATOM     38  H   UNL     1       3.924   0.380  -1.600  0.00  0.00    +0.155 HD
BRANCH  35  44
ATOM     39  C   UNL     1       6.232   0.034   0.169  0.00  0.00    +0.132 A 
ATOM     40  C   UNL     1       7.628  -0.123   0.287  0.00  0.00    -0.018 A 
ATOM     41  C   UNL     1       8.446   0.976   0.551  0.00  0.00    -0.040 A 
ATOM     42  C   UNL     1       7.887   2.245   0.703  0.00  0.00    +0.042 A 
ATOM     43  C   UNL     1       6.506   2.419   0.581  0.00  0.00    -0.028 A 
ATOM     44  C   UNL     1       5.668   1.325   0.298  0.00  0.00    +0.080 A 
ATOM     45 CL   UNL     1       8.919   3.623   1.042  0.00  0.00    -0.084 Cl
ATOM     46  H   UNL     1       8.091  -1.095   0.188  0.00  0.00    +0.065 HD
ATOM     47  H   UNL     1       9.516   0.839   0.643  0.00  0.00    +0.063 HD
ATOM     48  H   UNL     1       6.090   3.413   0.691  0.00  0.00    +0.064 HD
BRANCH  39  49
ATOM     49  O   UNL     1       5.386  -1.067  -0.050  0.00  0.00    -0.494 OA
BRANCH  49  50
ATOM     50  C   UNL     1       5.828  -2.412  -0.198  0.00  0.00    +0.079 C 
ATOM     51  H   UNL     1       6.504  -2.498  -1.075  0.00  0.00    +0.066 HD
ATOM     52  H   UNL     1       4.947  -3.065  -0.365  0.00  0.00    +0.066 HD
ATOM     53  H   UNL     1       6.349  -2.747   0.724  0.00  0.00    +0.066 HD
ENDBRANCH  49  50
ENDBRANCH  39  49
ENDBRANCH  35  44
ENDBRANCH   1  37
TORSDOF 6
