REMARK  Name = 
REMARK  6 active torsions:
REMARK  status: ('A' for Active; 'I' for Inactive)
REMARK    1  A    between atoms: C_1  and  O_2
REMARK    2  A    between atoms: O_2  and  C_3
REMARK    3  A    between atoms: C_8  and  C_9
REMARK    4  A    between atoms: N_11  and  C_12
REMARK    5  A    between atoms: C_15  and  N_18
REMARK    6  A    between atoms: C_24  and  C_26
REMARK                            x       y       z     vdW  Elec       q    Type
REMARK                         _______ _______ _______ _____ _____    ______ ____
ROOT
ATOM      1  C   UNL     1      -2.089   0.072   0.257  0.00  0.00    +0.034 A 
ATOM      2  C   UNL     1      -1.250   0.096   1.383  0.00  0.00    -0.039 A 
ATOM      3  C   UNL     1       0.139   0.064   1.232  0.00  0.00    -0.039 A 
ATOM      4  C   UNL     1       0.719   0.019  -0.049  0.00  0.00    +0.030 A 
ATOM      5  C   UNL     1      -0.125   0.024  -1.174  0.00  0.00    -0.039 A 
ATOM      6  C   UNL     1      -1.514   0.058  -1.021  0.00  0.00    -0.039 A 
ATOM      7  H   UNL     1      -1.664   0.166   2.380  0.00  0.00    +0.064 HD
ATOM      8  H   UNL     1       0.758   0.069   2.118  0.00  0.00    +0.064 HD
ATOM      9  H   UNL     1       0.288   0.020  -2.174  0.00  0.00    +0.064 HD
ATOM     10  H   UNL     1      -2.146   0.066  -1.901  0.00  0.00    +0.064 HD
ENDROOT
BRANCH   4  11
ATOM     11  N   UNL     1       2.155  -0.011  -0.205  0.00  0.00    -0.327 N 
ATOM     12  C   UNL     1       2.764  -0.745  -1.325  0.00  0.00    +0.028 C 
ATOM     13  C   UNL     1       4.127  -1.318  -0.922  0.00  0.00    +0.031 C 
ATOM     14  N   UNL     1       4.972  -0.307  -0.272  0.00  0.00    -0.292 N 
ATOM     15  C   UNL     1       4.405   0.994   0.107  0.00  0.00    +0.031 C 
ATOM     16  C   UNL     1       2.999   0.806   0.683  0.00  0.00    +0.028 C 
ATOM     17  C   UNL     1       6.328  -0.653   0.071  0.00  0.00    +0.282 C 
ATOM     18  O   UNL     1       6.592  -1.829   0.438  0.00  0.00    -0.267 OA
ATOM     19  H   UNL     1       2.110  -1.588  -1.639  0.00  0.00    +0.048 HD
ATOM     20  H   UNL     1       2.888  -0.056  -2.189  0.00  0.00    +0.048 HD
ATOM     21  H   UNL     1       3.970  -2.167  -0.222  0.00  0.00    +0.048 HD
ATOM     22  H   UNL     1       4.638  -1.701  -1.832  0.00  0.00    +0.048 HD
ATOM     23  H   UNL     1       5.037   1.496   0.871  0.00  0.00    +0.048 HD
ATOM     24  H   UNL     1       4.348   1.646  -0.790  0.00  0.00    +0.048 HD
ATOM     25  H   UNL     1       2.538   1.808   0.824  0.00  0.00    +0.048 HD
ATOM     26  H   UNL     1       3.079   0.309   1.674  0.00  0.00    +0.048 HD
BRANCH  17  27
ATOM     27  C   UNL     1       7.430   0.323  -0.005  0.00  0.00    +0.189 A 
ATOM     28  C   UNL     1       7.442   1.509  -0.716  0.00  0.00    -0.011 A 
ATOM     29  C   UNL     1       8.687   2.059  -0.501  0.00  0.00    -0.023 A 
ATOM     30  C   UNL     1       9.360   1.178   0.320  0.00  0.00    +0.093 A 
ATOM     31  O   UNL     1       8.587   0.152   0.594  0.00  0.00    -0.458 OA
ATOM     32  H   UNL     1       6.660   1.917  -1.340  0.00  0.00    +0.066 HD
ATOM     33  H   UNL     1       9.065   2.989  -0.905  0.00  0.00    +0.065 HD
ATOM     34  H   UNL     1      10.370   1.297   0.686  0.00  0.00    +0.103 HD
ENDBRANCH  17  27
ENDBRANCH   4  11
BRANCH   1  37
ATOM     35  C   UNL     1      -4.270  -0.577   1.387  0.00  0.00    +0.252 C 
ATOM     36  O   UNL     1      -3.678  -1.299   2.234  0.00  0.00    -0.270 OA
ATOM     37  N   UNL     1      -3.519   0.131   0.383  0.00  0.00    -0.281 N 
ATOM     38  H   UNL     1      -4.041   0.676  -0.340  0.00  0.00    +0.155 HD
BRANCH  35  44
ATOM     39  C   UNL     1      -6.537  -0.572   0.281  0.00  0.00    +0.132 A 
ATOM     40  C   UNL     1      -7.936  -0.439   0.390  0.00  0.00    -0.018 A 
ATOM     41  C   UNL     1      -8.535  -0.231   1.634  0.00  0.00    -0.040 A 
ATOM     42  C   UNL     1      -7.750  -0.157   2.785  0.00  0.00    +0.042 A 
ATOM     43  C   UNL     1      -6.362  -0.279   2.693  0.00  0.00    -0.028 A 
ATOM     44  C   UNL     1      -5.743  -0.467   1.445  0.00  0.00    +0.080 A 
ATOM     45 CL   UNL     1      -8.507   0.094   4.348  0.00  0.00    -0.084 Cl
ATOM     46  H   UNL     1      -8.573  -0.507  -0.482  0.00  0.00    +0.065 HD
ATOM     47  H   UNL     1      -9.611  -0.135   1.702  0.00  0.00    +0.063 HD
ATOM     48  H   UNL     1      -5.763  -0.210   3.593  0.00  0.00    +0.064 HD
BRANCH  39  49
ATOM     49  O   UNL     1      -5.917  -0.836  -0.951  0.00  0.00    -0.494 OA
BRANCH  49  50
ATOM     50  C   UNL     1      -6.602  -0.962  -2.193  0.00  0.00    +0.079 C 
ATOM     51  H   UNL     1      -7.139  -0.019  -2.431  0.00  0.00    +0.066 HD
ATOM     52  H   UNL     1      -7.318  -1.810  -2.150  0.00  0.00    +0.066 HD
ATOM     53  H   UNL     1      -5.863  -1.162  -2.995  0.00  0.00    +0.066 HD
ENDBRANCH  49  50
ENDBRANCH  39  49
ENDBRANCH  35  44
ENDBRANCH   1  37
TORSDOF 6
