REMARK  Name = 
REMARK  9 active torsions:
REMARK  status: ('A' for Active; 'I' for Inactive)
REMARK    1  A    between atoms: C_1  and  N_2
REMARK    2  A    between atoms: C_10  and  C_12
REMARK    3  A    between atoms: C_12  and  C_13
REMARK    4  A    between atoms: C_12  and  N_29
REMARK    5  A    between atoms: C_13  and  N_14
REMARK    6  A    between atoms: C_15  and  C_17
REMARK    7  A    between atoms: N_19  and  C_20
REMARK    8  A    between atoms: C_25  and  O_26
REMARK    9  A    between atoms: O_26  and  C_27
REMARK                            x       y       z     vdW  Elec       q    Type
REMARK                         _______ _______ _______ _____ _____    ______ ____
ROOT
ATOM      1  C   UNL     1      -0.499  -0.669  -0.534  0.00  0.00    -0.036 C 
ATOM      2  H   UNL     1      -0.007  -0.797   0.458  0.00  0.00    +0.016 HD
ENDROOT
BRANCH   1  11
ATOM      3  N   UNL     1      -6.151  -1.693   0.402  0.00  0.00    -0.333 N 
ATOM      4  C   UNL     1      -6.677  -1.644   1.775  0.00  0.00    +0.012 C 
ATOM      5  C   UNL     1      -5.922  -0.616   2.615  0.00  0.00    -0.033 C 
ATOM      6  C   UNL     1      -4.428  -0.930   2.614  0.00  0.00    -0.025 C 
ATOM      7  C   UNL     1      -3.896  -1.048   1.210  0.00  0.00    -0.026 A 
ATOM      8  C   UNL     1      -4.742  -1.445   0.150  0.00  0.00    +0.033 A 
ATOM      9  C   UNL     1      -4.195  -1.562  -1.143  0.00  0.00    -0.040 A 
ATOM     10  C   UNL     1      -2.840  -1.316  -1.371  0.00  0.00    -0.058 A 
ATOM     11  C   UNL     1      -1.988  -0.949  -0.315  0.00  0.00    -0.059 A 
ATOM     12  C   UNL     1      -2.532  -0.823   0.974  0.00  0.00    -0.055 A 
ATOM     13  H   UNL     1      -7.753  -1.364   1.771  0.00  0.00    +0.046 HD
ATOM     14  H   UNL     1      -6.582  -2.650   2.239  0.00  0.00    +0.046 HD
ATOM     15  H   UNL     1      -6.092   0.402   2.199  0.00  0.00    +0.028 HD
ATOM     16  H   UNL     1      -6.304  -0.634   3.659  0.00  0.00    +0.028 HD
ATOM     17  H   UNL     1      -4.246  -1.887   3.150  0.00  0.00    +0.031 HD
ATOM     18  H   UNL     1      -3.896  -0.121   3.160  0.00  0.00    +0.031 HD
ATOM     19  H   UNL     1      -4.807  -1.840  -1.989  0.00  0.00    +0.064 HD
ATOM     20  H   UNL     1      -2.468  -1.407  -2.381  0.00  0.00    +0.062 HD
ATOM     21  H   UNL     1      -1.891  -0.540   1.801  0.00  0.00    +0.062 HD
BRANCH   3  22
ATOM     22  C   UNL     1      -7.052  -2.124  -0.673  0.00  0.00    +0.001 C 
ATOM     23  H   UNL     1      -7.123  -1.330  -1.445  0.00  0.00    +0.043 HD
ATOM     24  H   UNL     1      -8.075  -2.327  -0.291  0.00  0.00    +0.043 HD
ATOM     25  H   UNL     1      -6.673  -3.062  -1.130  0.00  0.00    +0.043 HD
ENDBRANCH   3  22
ENDBRANCH   1  11
BRANCH   1  26
ATOM     26  N   UNL     1      -0.214   0.725  -1.000  0.00  0.00    +0.385 N 
ATOM     27  C   UNL     1      -0.552   1.718   0.050  0.00  0.00    -0.090 C 
ATOM     28  C   UNL     1      -0.099   3.129  -0.355  0.00  0.00    -0.068 C 
ATOM     29  C   UNL     1      -0.720   3.529  -1.695  0.00  0.00    -0.056 C 
ATOM     30  C   UNL     1      -0.434   2.469  -2.761  0.00  0.00    -0.068 C 
ATOM     31  C   UNL     1      -0.882   1.082  -2.276  0.00  0.00    -0.090 C 
ATOM     32  H   UNL     1       0.821   0.795  -1.152  0.00  0.00    -0.081 HD
ATOM     33  H   UNL     1      -0.045   1.458   1.006  0.00  0.00    +0.006 HD
ATOM     34  H   UNL     1      -1.649   1.735   0.239  0.00  0.00    +0.006 HD
ATOM     35  H   UNL     1      -0.408   3.856   0.427  0.00  0.00    +0.025 HD
ATOM     36  H   UNL     1       1.010   3.157  -0.433  0.00  0.00    +0.025 HD
ATOM     37  H   UNL     1      -1.819   3.650  -1.575  0.00  0.00    +0.026 HD
ATOM     38  H   UNL     1      -0.300   4.505  -2.021  0.00  0.00    +0.026 HD
ATOM     39  H   UNL     1      -0.980   2.729  -3.694  0.00  0.00    +0.025 HD
ATOM     40  H   UNL     1       0.654   2.452  -2.991  0.00  0.00    +0.025 HD
ATOM     41  H   UNL     1      -1.987   1.095  -2.156  0.00  0.00    +0.006 HD
ATOM     42  H   UNL     1      -0.626   0.353  -3.073  0.00  0.00    +0.006 HD
ENDBRANCH   1  26
BRANCH   1  43
ATOM     43  C   UNL     1       0.172  -1.757  -1.418  0.00  0.00    +0.004 C 
ATOM     44  H   UNL     1      -0.239  -1.752  -2.447  0.00  0.00    +0.045 HD
ATOM     45  H   UNL     1      -0.039  -2.764  -0.998  0.00  0.00    +0.045 HD
BRANCH  43  46
ATOM     46  N   UNL     1       1.619  -1.561  -1.494  0.00  0.00    -0.309 N 
ATOM     47  C   UNL     1       2.490  -1.785  -0.375  0.00  0.00    +0.299 C 
ATOM     48  O   UNL     1       2.068  -2.407   0.638  0.00  0.00    -0.265 OA
ATOM     49  H   UNL     1       2.021  -1.222  -2.397  0.00  0.00    +0.149 HD
BRANCH  47  50
ATOM     50  C   UNL     1       3.871  -1.272  -0.391  0.00  0.00    +0.303 C 
ATOM     51  O   UNL     1       4.292  -0.648  -1.402  0.00  0.00    -0.265 OA
ATOM     52  N   UNL     1       4.736  -1.480   0.736  0.00  0.00    -0.275 N 
ATOM     53  H   UNL     1       4.541  -2.284   1.374  0.00  0.00    +0.155 HD
BRANCH  52  54
ATOM     54  C   UNL     1       5.948  -0.735   0.938  0.00  0.00    +0.077 A 
ATOM     55  C   UNL     1       7.113  -1.420   1.313  0.00  0.00    -0.019 A 
ATOM     56  C   UNL     1       8.308  -0.726   1.521  0.00  0.00    +0.043 A 
ATOM     57  C   UNL     1       8.344   0.661   1.368  0.00  0.00    -0.040 A 
ATOM     58  C   UNL     1       7.184   1.360   1.023  0.00  0.00    -0.017 A 
ATOM     59  C   UNL     1       5.971   0.672   0.819  0.00  0.00    +0.141 A 
ATOM     60 CL   UNL     1       9.762  -1.597   1.970  0.00  0.00    -0.083 Cl
ATOM     61  H   UNL     1       7.092  -2.496   1.429  0.00  0.00    +0.065 HD
ATOM     62  H   UNL     1       9.268   1.202   1.527  0.00  0.00    +0.063 HD
ATOM     63  H   UNL     1       7.239   2.436   0.930  0.00  0.00    +0.066 HD
BRANCH  59  64
ATOM     64  O   UNL     1       4.777   1.352   0.525  0.00  0.00    -0.493 OA
BRANCH  64  65
ATOM     65  C   UNL     1       4.664   2.763   0.373  0.00  0.00    +0.079 C 
ATOM     66  H   UNL     1       4.951   3.273   1.317  0.00  0.00    +0.066 HD
ATOM     67  H   UNL     1       3.610   3.017   0.139  0.00  0.00    +0.066 HD
ATOM     68  H   UNL     1       5.308   3.109  -0.463  0.00  0.00    +0.066 HD
ENDBRANCH  64  65
ENDBRANCH  59  64
ENDBRANCH  52  54
ENDBRANCH  47  50
ENDBRANCH  43  46
ENDBRANCH   1  43
TORSDOF 9
