REMARK  Name = 
REMARK  9 active torsions:
REMARK  status: ('A' for Active; 'I' for Inactive)
REMARK    1  A    between atoms: C_1  and  N_2
REMARK    2  A    between atoms: C_10  and  C_12
REMARK    3  A    between atoms: C_12  and  C_13
REMARK    4  A    between atoms: C_12  and  N_29
REMARK    5  A    between atoms: C_13  and  N_14
REMARK    6  A    between atoms: C_15  and  C_17
REMARK    7  A    between atoms: N_19  and  C_20
REMARK    8  A    between atoms: C_25  and  O_26
REMARK    9  A    between atoms: O_26  and  C_27
REMARK                            x       y       z     vdW  Elec       q    Type
REMARK                         _______ _______ _______ _____ _____    ______ ____
ROOT
ATOM      1  C   UNL     1      -0.846   0.618  -0.046  0.00  0.00    -0.036 C 
ATOM      2  H   UNL     1      -0.068   0.184   0.625  0.00  0.00    +0.016 HD
ENDROOT
BRANCH   1  11
ATOM      3  N   UNL     1      -5.410  -2.979  -0.044  0.00  0.00    -0.333 N 
ATOM      4  C   UNL     1      -6.555  -2.710  -0.927  0.00  0.00    +0.012 C 
ATOM      5  C   UNL     1      -6.761  -1.208  -1.115  0.00  0.00    -0.033 C 
ATOM      6  C   UNL     1      -5.488  -0.567  -1.663  0.00  0.00    -0.025 C 
ATOM      7  C   UNL     1      -4.297  -0.895  -0.802  0.00  0.00    -0.026 A 
ATOM      8  C   UNL     1      -4.264  -2.087  -0.042  0.00  0.00    +0.033 A 
ATOM      9  C   UNL     1      -3.115  -2.366   0.727  0.00  0.00    -0.040 A 
ATOM     10  C   UNL     1      -2.023  -1.497   0.722  0.00  0.00    -0.058 A 
ATOM     11  C   UNL     1      -2.046  -0.324  -0.047  0.00  0.00    -0.059 A 
ATOM     12  C   UNL     1      -3.187  -0.037  -0.815  0.00  0.00    -0.055 A 
ATOM     13  H   UNL     1      -6.376  -3.191  -1.913  0.00  0.00    +0.046 HD
ATOM     14  H   UNL     1      -7.488  -3.137  -0.497  0.00  0.00    +0.046 HD
ATOM     15  H   UNL     1      -7.600  -1.033  -1.823  0.00  0.00    +0.028 HD
ATOM     16  H   UNL     1      -7.025  -0.744  -0.139  0.00  0.00    +0.028 HD
ATOM     17  H   UNL     1      -5.299  -0.933  -2.695  0.00  0.00    +0.031 HD
ATOM     18  H   UNL     1      -5.639   0.534  -1.708  0.00  0.00    +0.031 HD
ATOM     19  H   UNL     1      -3.049  -3.256   1.337  0.00  0.00    +0.064 HD
ATOM     20  H   UNL     1      -1.157  -1.742   1.323  0.00  0.00    +0.062 HD
ATOM     21  H   UNL     1      -3.213   0.855  -1.429  0.00  0.00    +0.062 HD
BRANCH   3  22
ATOM     22  C   UNL     1      -5.403  -4.227   0.728  0.00  0.00    +0.001 C 
ATOM     23  H   UNL     1      -5.322  -3.998   1.812  0.00  0.00    +0.043 HD
ATOM     24  H   UNL     1      -6.335  -4.811   0.568  0.00  0.00    +0.043 HD
ATOM     25  H   UNL     1      -4.550  -4.863   0.412  0.00  0.00    +0.043 HD
ENDBRANCH   3  22
ENDBRANCH   1  11
BRANCH   1  26
ATOM     26  N   UNL     1      -1.211   1.976   0.474  0.00  0.00    +0.385 N 
ATOM     27  C   UNL     1      -0.043   2.905   0.438  0.00  0.00    -0.090 C 
ATOM     28  C   UNL     1      -0.189   4.137   1.360  0.00  0.00    -0.068 C 
ATOM     29  C   UNL     1      -1.654   4.447   1.651  0.00  0.00    -0.056 C 
ATOM     30  C   UNL     1      -2.342   3.246   2.314  0.00  0.00    -0.068 C 
ATOM     31  C   UNL     1      -1.751   1.896   1.856  0.00  0.00    -0.090 C 
ATOM     32  H   UNL     1      -1.957   2.374  -0.145  0.00  0.00    -0.081 HD
ATOM     33  H   UNL     1       0.093   3.280  -0.600  0.00  0.00    +0.006 HD
ATOM     34  H   UNL     1       0.893   2.376   0.732  0.00  0.00    +0.006 HD
ATOM     35  H   UNL     1       0.335   3.946   2.323  0.00  0.00    +0.025 HD
ATOM     36  H   UNL     1       0.293   5.021   0.888  0.00  0.00    +0.025 HD
ATOM     37  H   UNL     1      -1.726   5.334   2.317  0.00  0.00    +0.026 HD
ATOM     38  H   UNL     1      -2.170   4.697   0.698  0.00  0.00    +0.026 HD
ATOM     39  H   UNL     1      -2.244   3.324   3.419  0.00  0.00    +0.025 HD
ATOM     40  H   UNL     1      -3.427   3.280   2.072  0.00  0.00    +0.025 HD
ATOM     41  H   UNL     1      -0.946   1.586   2.560  0.00  0.00    +0.006 HD
ATOM     42  H   UNL     1      -2.563   1.143   1.939  0.00  0.00    +0.006 HD
ENDBRANCH   1  26
BRANCH   1  43
ATOM     43  C   UNL     1      -0.264   0.659  -1.491  0.00  0.00    +0.004 C 
ATOM     44  H   UNL     1      -0.442  -0.304  -2.018  0.00  0.00    +0.045 HD
ATOM     45  H   UNL     1      -0.781   1.445  -2.083  0.00  0.00    +0.045 HD
BRANCH  43  46
ATOM     46  N   UNL     1       1.177   0.916  -1.492  0.00  0.00    -0.309 N 
ATOM     47  C   UNL     1       2.134  -0.064  -1.060  0.00  0.00    +0.299 C 
ATOM     48  O   UNL     1       1.747  -1.216  -0.726  0.00  0.00    -0.265 OA
ATOM     49  H   UNL     1       1.516   1.817  -1.899  0.00  0.00    +0.149 HD
BRANCH  47  50
ATOM     50  C   UNL     1       3.571   0.265  -1.009  0.00  0.00    +0.303 C 
ATOM     51  O   UNL     1       3.956   1.419  -1.341  0.00  0.00    -0.265 OA
ATOM     52  N   UNL     1       4.524  -0.708  -0.547  0.00  0.00    -0.275 N 
ATOM     53  H   UNL     1       4.167  -1.537  -0.022  0.00  0.00    +0.155 HD
BRANCH  52  54
ATOM     54  C   UNL     1       5.949  -0.549  -0.671  0.00  0.00    +0.077 A 
ATOM     55  C   UNL     1       6.509   0.021  -1.830  0.00  0.00    -0.019 A 
ATOM     56  C   UNL     1       7.894   0.150  -1.958  0.00  0.00    +0.043 A 
ATOM     57  C   UNL     1       8.734  -0.298  -0.937  0.00  0.00    -0.040 A 
ATOM     58  C   UNL     1       8.193  -0.883   0.210  0.00  0.00    -0.017 A 
ATOM     59  C   UNL     1       6.797  -1.018   0.352  0.00  0.00    +0.141 A 
ATOM     60 CL   UNL     1       8.579   0.864  -3.407  0.00  0.00    -0.083 Cl
ATOM     61  H   UNL     1       5.873   0.342  -2.644  0.00  0.00    +0.065 HD
ATOM     62  H   UNL     1       9.807  -0.201  -1.034  0.00  0.00    +0.063 HD
ATOM     63  H   UNL     1       8.869  -1.227   0.981  0.00  0.00    +0.066 HD
BRANCH  59  64
ATOM     64  O   UNL     1       6.222  -1.599   1.494  0.00  0.00    -0.493 OA
BRANCH  64  65
ATOM     65  C   UNL     1       6.960  -2.110   2.599  0.00  0.00    +0.079 C 
ATOM     66  H   UNL     1       6.251  -2.510   3.353  0.00  0.00    +0.066 HD
ATOM     67  H   UNL     1       7.627  -2.933   2.266  0.00  0.00    +0.066 HD
ATOM     68  H   UNL     1       7.556  -1.298   3.068  0.00  0.00    +0.066 HD
ENDBRANCH  64  65
ENDBRANCH  59  64
ENDBRANCH  52  54
ENDBRANCH  47  50
ENDBRANCH  43  46
ENDBRANCH   1  43
TORSDOF 9
