REMARK  Name = 
REMARK  9 active torsions:
REMARK  status: ('A' for Active; 'I' for Inactive)
REMARK    1  A    between atoms: C_1  and  N_2
REMARK    2  A    between atoms: C_10  and  C_12
REMARK    3  A    between atoms: C_12  and  C_13
REMARK    4  A    between atoms: C_12  and  N_29
REMARK    5  A    between atoms: C_13  and  N_14
REMARK    6  A    between atoms: C_15  and  C_17
REMARK    7  A    between atoms: N_19  and  C_20
REMARK    8  A    between atoms: C_25  and  O_26
REMARK    9  A    between atoms: O_26  and  C_27
REMARK                            x       y       z     vdW  Elec       q    Type
REMARK                         _______ _______ _______ _____ _____    ______ ____
ROOT
ATOM      1  C   UNL     1      -1.059  -0.614   0.932  0.00  0.00    -0.036 C 
ATOM      2  H   UNL     1      -0.375  -0.548   0.056  0.00  0.00    +0.016 HD
ENDROOT
BRANCH   1  11
ATOM      3  N   UNL     1      -5.778   2.566  -0.254  0.00  0.00    -0.333 N 
ATOM      4  C   UNL     1      -5.822   3.372  -1.484  0.00  0.00    +0.012 C 
ATOM      5  C   UNL     1      -5.048   2.691  -2.612  0.00  0.00    -0.033 C 
ATOM      6  C   UNL     1      -3.606   2.434  -2.181  0.00  0.00    -0.025 C 
ATOM      7  C   UNL     1      -3.550   1.672  -0.883  0.00  0.00    -0.026 A 
ATOM      8  C   UNL     1      -4.604   1.769   0.055  0.00  0.00    +0.033 A 
ATOM      9  C   UNL     1      -4.494   1.062   1.270  0.00  0.00    -0.040 A 
ATOM     10  C   UNL     1      -3.361   0.296   1.551  0.00  0.00    -0.058 A 
ATOM     11  C   UNL     1      -2.308   0.210   0.627  0.00  0.00    -0.059 A 
ATOM     12  C   UNL     1      -2.408   0.916  -0.583  0.00  0.00    -0.055 A 
ATOM     13  H   UNL     1      -5.384   4.373  -1.280  0.00  0.00    +0.046 HD
ATOM     14  H   UNL     1      -6.872   3.514  -1.821  0.00  0.00    +0.046 HD
ATOM     15  H   UNL     1      -5.057   3.340  -3.514  0.00  0.00    +0.028 HD
ATOM     16  H   UNL     1      -5.540   1.727  -2.871  0.00  0.00    +0.028 HD
ATOM     17  H   UNL     1      -3.093   1.862  -2.985  0.00  0.00    +0.031 HD
ATOM     18  H   UNL     1      -3.076   3.403  -2.053  0.00  0.00    +0.031 HD
ATOM     19  H   UNL     1      -5.278   1.095   2.013  0.00  0.00    +0.064 HD
ATOM     20  H   UNL     1      -3.304  -0.221   2.499  0.00  0.00    +0.062 HD
ATOM     21  H   UNL     1      -1.596   0.872  -1.300  0.00  0.00    +0.062 HD
BRANCH   3  22
ATOM     22  C   UNL     1      -6.887   2.689   0.699  0.00  0.00    +0.001 C 
ATOM     23  H   UNL     1      -6.515   3.101   1.661  0.00  0.00    +0.043 HD
ATOM     24  H   UNL     1      -7.676   3.374   0.322  0.00  0.00    +0.043 HD
ATOM     25  H   UNL     1      -7.349   1.693   0.868  0.00  0.00    +0.043 HD
ENDBRANCH   3  22
ENDBRANCH   1  11
BRANCH   1  26
ATOM     26  N   UNL     1      -1.390  -2.060   1.155  0.00  0.00    +0.385 N 
ATOM     27  C   UNL     1      -2.082  -2.667  -0.029  0.00  0.00    -0.090 C 
ATOM     28  C   UNL     1      -1.135  -3.463  -0.938  0.00  0.00    -0.068 C 
ATOM     29  C   UNL     1      -0.506  -4.640  -0.175  0.00  0.00    -0.056 C 
ATOM     30  C   UNL     1      -0.351  -4.346   1.325  0.00  0.00    -0.068 C 
ATOM     31  C   UNL     1      -0.186  -2.841   1.570  0.00  0.00    -0.090 C 
ATOM     32  H   UNL     1      -2.063  -2.114   1.956  0.00  0.00    -0.081 HD
ATOM     33  H   UNL     1      -2.884  -3.357   0.322  0.00  0.00    +0.006 HD
ATOM     34  H   UNL     1      -2.602  -1.915  -0.658  0.00  0.00    +0.006 HD
ATOM     35  H   UNL     1      -0.336  -2.785  -1.311  0.00  0.00    +0.025 HD
ATOM     36  H   UNL     1      -1.693  -3.847  -1.820  0.00  0.00    +0.025 HD
ATOM     37  H   UNL     1       0.490  -4.862  -0.617  0.00  0.00    +0.026 HD
ATOM     38  H   UNL     1      -1.138  -5.547  -0.300  0.00  0.00    +0.026 HD
ATOM     39  H   UNL     1       0.532  -4.891   1.723  0.00  0.00    +0.025 HD
ATOM     40  H   UNL     1      -1.249  -4.706   1.874  0.00  0.00    +0.025 HD
ATOM     41  H   UNL     1       0.717  -2.505   1.012  0.00  0.00    +0.006 HD
ATOM     42  H   UNL     1       0.007  -2.693   2.655  0.00  0.00    +0.006 HD
ENDBRANCH   1  26
BRANCH   1  43
ATOM     43  C   UNL     1      -0.345   0.044   2.152  0.00  0.00    +0.004 C 
ATOM     44  H   UNL     1      -0.761  -0.364   3.099  0.00  0.00    +0.045 HD
ATOM     45  H   UNL     1      -0.528   1.142   2.175  0.00  0.00    +0.045 HD
BRANCH  43  46
ATOM     46  N   UNL     1       1.102  -0.171   2.121  0.00  0.00    -0.309 N 
ATOM     47  C   UNL     1       1.957   0.483   1.170  0.00  0.00    +0.299 C 
ATOM     48  O   UNL     1       1.477   1.335   0.373  0.00  0.00    -0.265 OA
ATOM     49  H   UNL     1       1.528  -0.766   2.867  0.00  0.00    +0.149 HD
BRANCH  47  50
ATOM     50  C   UNL     1       3.398   0.169   1.119  0.00  0.00    +0.303 C 
ATOM     51  O   UNL     1       3.875  -0.684   1.915  0.00  0.00    -0.265 OA
ATOM     52  N   UNL     1       4.245   0.798   0.142  0.00  0.00    -0.275 N 
ATOM     53  H   UNL     1       3.792   1.275  -0.670  0.00  0.00    +0.155 HD
BRANCH  52  54
ATOM     54  C   UNL     1       5.681   0.715   0.162  0.00  0.00    +0.077 A 
ATOM     55  C   UNL     1       6.386   0.772   1.379  0.00  0.00    -0.019 A 
ATOM     56  C   UNL     1       7.782   0.716   1.392  0.00  0.00    +0.043 A 
ATOM     57  C   UNL     1       8.488   0.616   0.192  0.00  0.00    -0.040 A 
ATOM     58  C   UNL     1       7.802   0.578  -1.023  0.00  0.00    -0.017 A 
ATOM     59  C   UNL     1       6.394   0.631  -1.051  0.00  0.00    +0.141 A 
ATOM     60 CL   UNL     1       8.649   0.785   2.916  0.00  0.00    -0.083 Cl
ATOM     61  H   UNL     1       5.855   0.883   2.315  0.00  0.00    +0.065 HD
ATOM     62  H   UNL     1       9.570   0.574   0.200  0.00  0.00    +0.063 HD
ATOM     63  H   UNL     1       8.377   0.506  -1.937  0.00  0.00    +0.066 HD
BRANCH  59  64
ATOM     64  O   UNL     1       5.675   0.594  -2.256  0.00  0.00    -0.493 OA
BRANCH  64  65
ATOM     65  C   UNL     1       6.267   0.507  -3.548  0.00  0.00    +0.079 C 
ATOM     66  H   UNL     1       5.465   0.497  -4.314  0.00  0.00    +0.066 HD
ATOM     67  H   UNL     1       6.855  -0.432  -3.636  0.00  0.00    +0.066 HD
ATOM     68  H   UNL     1       6.920   1.386  -3.729  0.00  0.00    +0.066 HD
ENDBRANCH  64  65
ENDBRANCH  59  64
ENDBRANCH  52  54
ENDBRANCH  47  50
ENDBRANCH  43  46
ENDBRANCH   1  43
TORSDOF 9
