REMARK  Name = 
REMARK  9 active torsions:
REMARK  status: ('A' for Active; 'I' for Inactive)
REMARK    1  A    between atoms: C_1  and  N_2
REMARK    2  A    between atoms: C_10  and  C_12
REMARK    3  A    between atoms: C_12  and  C_13
REMARK    4  A    between atoms: C_12  and  N_29
REMARK    5  A    between atoms: C_13  and  N_14
REMARK    6  A    between atoms: C_15  and  C_17
REMARK    7  A    between atoms: N_19  and  C_20
REMARK    8  A    between atoms: C_25  and  O_26
REMARK    9  A    between atoms: O_26  and  C_27
REMARK                            x       y       z     vdW  Elec       q    Type
REMARK                         _______ _______ _______ _____ _____    ______ ____
ROOT
ATOM      1  C   UNL     1      -1.136   2.775   0.481  0.00  0.00    -0.036 C 
ATOM      2  H   UNL     1      -0.937   3.202   1.491  0.00  0.00    +0.016 HD
ENDROOT
BRANCH   1  11
ATOM      3  N   UNL     1      -0.077  -2.937   0.674  0.00  0.00    -0.333 N 
ATOM      4  C   UNL     1      -0.134  -3.752  -0.551  0.00  0.00    +0.012 C 
ATOM      5  C   UNL     1       0.059  -2.905  -1.810  0.00  0.00    -0.033 C 
ATOM      6  C   UNL     1      -0.917  -1.732  -1.818  0.00  0.00    -0.025 C 
ATOM      7  C   UNL     1      -0.762  -0.906  -0.571  0.00  0.00    -0.026 A 
ATOM      8  C   UNL     1      -0.358  -1.513   0.638  0.00  0.00    +0.033 A 
ATOM      9  C   UNL     1      -0.210  -0.707   1.783  0.00  0.00    -0.040 A 
ATOM     10  C   UNL     1      -0.470   0.664   1.730  0.00  0.00    -0.058 A 
ATOM     11  C   UNL     1      -0.900   1.264   0.537  0.00  0.00    -0.059 A 
ATOM     12  C   UNL     1      -1.064   0.464  -0.606  0.00  0.00    -0.055 A 
ATOM     13  H   UNL     1      -1.117  -4.269  -0.599  0.00  0.00    +0.046 HD
ATOM     14  H   UNL     1       0.666  -4.524  -0.526  0.00  0.00    +0.046 HD
ATOM     15  H   UNL     1       1.102  -2.526  -1.847  0.00  0.00    +0.028 HD
ATOM     16  H   UNL     1      -0.110  -3.536  -2.709  0.00  0.00    +0.028 HD
ATOM     17  H   UNL     1      -1.961  -2.109  -1.877  0.00  0.00    +0.031 HD
ATOM     18  H   UNL     1      -0.718  -1.113  -2.720  0.00  0.00    +0.031 HD
ATOM     19  H   UNL     1       0.123  -1.124   2.723  0.00  0.00    +0.064 HD
ATOM     20  H   UNL     1      -0.329   1.259   2.623  0.00  0.00    +0.062 HD
ATOM     21  H   UNL     1      -1.386   0.913  -1.536  0.00  0.00    +0.062 HD
BRANCH   3  22
ATOM     22  C   UNL     1       0.050  -3.645   1.953  0.00  0.00    +0.001 C 
ATOM     23  H   UNL     1       0.115  -4.744   1.803  0.00  0.00    +0.043 HD
ATOM     24  H   UNL     1       0.970  -3.317   2.476  0.00  0.00    +0.043 HD
ATOM     25  H   UNL     1      -0.836  -3.438   2.590  0.00  0.00    +0.043 HD
ENDBRANCH   3  22
ENDBRANCH   1  11
BRANCH   1  26
ATOM     26  N   UNL     1      -2.553   3.093   0.104  0.00  0.00    +0.385 N 
ATOM     27  C   UNL     1      -3.496   2.473   1.075  0.00  0.00    -0.090 C 
ATOM     28  C   UNL     1      -4.960   2.748   0.708  0.00  0.00    -0.068 C 
ATOM     29  C   UNL     1      -5.219   4.248   0.636  0.00  0.00    -0.056 C 
ATOM     30  C   UNL     1      -4.236   4.900  -0.332  0.00  0.00    -0.068 C 
ATOM     31  C   UNL     1      -2.787   4.562   0.050  0.00  0.00    -0.090 C 
ATOM     32  H   UNL     1      -2.746   2.700  -0.848  0.00  0.00    -0.081 HD
ATOM     33  H   UNL     1      -3.298   2.849   2.105  0.00  0.00    +0.006 HD
ATOM     34  H   UNL     1      -3.379   1.369   1.092  0.00  0.00    +0.006 HD
ATOM     35  H   UNL     1      -5.626   2.296   1.475  0.00  0.00    +0.025 HD
ATOM     36  H   UNL     1      -5.194   2.277  -0.273  0.00  0.00    +0.025 HD
ATOM     37  H   UNL     1      -6.259   4.431   0.289  0.00  0.00    +0.026 HD
ATOM     38  H   UNL     1      -5.106   4.699   1.647  0.00  0.00    +0.026 HD
ATOM     39  H   UNL     1      -4.441   4.546  -1.366  0.00  0.00    +0.025 HD
ATOM     40  H   UNL     1      -4.377   6.002  -0.311  0.00  0.00    +0.025 HD
ATOM     41  H   UNL     1      -2.539   5.035   1.027  0.00  0.00    +0.006 HD
ATOM     42  H   UNL     1      -2.157   5.032  -0.733  0.00  0.00    +0.006 HD
ENDBRANCH   1  26
BRANCH   1  43
ATOM     43  C   UNL     1      -0.093   3.427  -0.475  0.00  0.00    +0.004 C 
ATOM     44  H   UNL     1      -0.378   3.251  -1.534  0.00  0.00    +0.045 HD
ATOM     45  H   UNL     1      -0.067   4.524  -0.313  0.00  0.00    +0.045 HD
BRANCH  43  46
ATOM     46  N   UNL     1       1.258   2.924  -0.210  0.00  0.00    -0.309 N 
ATOM     47  C   UNL     1       1.823   1.840  -0.962  0.00  0.00    +0.299 C 
ATOM     48  O   UNL     1       1.442   1.626  -2.145  0.00  0.00    -0.265 OA
ATOM     49  H   UNL     1       1.697   3.190   0.700  0.00  0.00    +0.149 HD
BRANCH  47  50
ATOM     50  C   UNL     1       2.790   0.925  -0.334  0.00  0.00    +0.303 C 
ATOM     51  O   UNL     1       3.460   1.316   0.659  0.00  0.00    -0.265 OA
ATOM     52  N   UNL     1       2.961  -0.404  -0.851  0.00  0.00    -0.275 N 
ATOM     53  H   UNL     1       2.692  -0.570  -1.847  0.00  0.00    +0.155 HD
BRANCH  52  54
ATOM     54  C   UNL     1       3.423  -1.530  -0.077  0.00  0.00    +0.077 A 
ATOM     55  C   UNL     1       3.301  -1.550   1.327  0.00  0.00    -0.019 A 
ATOM     56  C   UNL     1       3.733  -2.656   2.063  0.00  0.00    +0.043 A 
ATOM     57  C   UNL     1       4.260  -3.768   1.407  0.00  0.00    -0.040 A 
ATOM     58  C   UNL     1       4.358  -3.778   0.015  0.00  0.00    -0.017 A 
ATOM     59  C   UNL     1       3.941  -2.664  -0.739  0.00  0.00    +0.141 A 
ATOM     60 CL   UNL     1       3.594  -2.654   3.812  0.00  0.00    -0.083 Cl
ATOM     61  H   UNL     1       2.847  -0.726   1.857  0.00  0.00    +0.065 HD
ATOM     62  H   UNL     1       4.588  -4.630   1.974  0.00  0.00    +0.063 HD
ATOM     63  H   UNL     1       4.763  -4.658  -0.465  0.00  0.00    +0.066 HD
BRANCH  59  64
ATOM     64  O   UNL     1       4.027  -2.648  -2.141  0.00  0.00    -0.493 OA
BRANCH  64  65
ATOM     65  C   UNL     1       4.484  -3.738  -2.935  0.00  0.00    +0.079 C 
ATOM     66  H   UNL     1       4.429  -3.453  -4.006  0.00  0.00    +0.066 HD
ATOM     67  H   UNL     1       3.838  -4.626  -2.771  0.00  0.00    +0.066 HD
ATOM     68  H   UNL     1       5.539  -3.978  -2.685  0.00  0.00    +0.066 HD
ENDBRANCH  64  65
ENDBRANCH  59  64
ENDBRANCH  52  54
ENDBRANCH  47  50
ENDBRANCH  43  46
ENDBRANCH   1  43
TORSDOF 9
