REMARK  Name = 
REMARK  9 active torsions:
REMARK  status: ('A' for Active; 'I' for Inactive)
REMARK    1  A    between atoms: C_1  and  N_2
REMARK    2  A    between atoms: C_10  and  C_12
REMARK    3  A    between atoms: C_12  and  C_13
REMARK    4  A    between atoms: C_12  and  N_29
REMARK    5  A    between atoms: C_13  and  N_14
REMARK    6  A    between atoms: C_15  and  C_17
REMARK    7  A    between atoms: N_19  and  C_20
REMARK    8  A    between atoms: C_25  and  O_26
REMARK    9  A    between atoms: O_26  and  C_27
REMARK                            x       y       z     vdW  Elec       q    Type
REMARK                         _______ _______ _______ _____ _____    ______ ____
ROOT
ATOM      1  C   UNL     1      -1.089  -1.595   2.135  0.00  0.00    -0.036 C 
ATOM      2  H   UNL     1      -0.458  -2.424   1.740  0.00  0.00    +0.016 HD
ENDROOT
BRANCH   1  11
ATOM      3  N   UNL     1      -1.406   2.491  -1.985  0.00  0.00    -0.333 N 
ATOM      4  C   UNL     1      -0.782   2.266  -3.300  0.00  0.00    +0.012 C 
ATOM      5  C   UNL     1      -0.717   0.779  -3.647  0.00  0.00    -0.033 C 
ATOM      6  C   UNL     1      -0.021   0.007  -2.530  0.00  0.00    -0.025 C 
ATOM      7  C   UNL     1      -0.710   0.240  -1.214  0.00  0.00    -0.026 A 
ATOM      8  C   UNL     1      -1.362   1.466  -0.957  0.00  0.00    +0.033 A 
ATOM      9  C   UNL     1      -1.979   1.654   0.297  0.00  0.00    -0.040 A 
ATOM     10  C   UNL     1      -1.917   0.664   1.279  0.00  0.00    -0.058 A 
ATOM     11  C   UNL     1      -1.234  -0.537   1.038  0.00  0.00    -0.059 A 
ATOM     12  C   UNL     1      -0.639  -0.742  -0.216  0.00  0.00    -0.055 A 
ATOM     13  H   UNL     1      -1.367   2.782  -4.092  0.00  0.00    +0.046 HD
ATOM     14  H   UNL     1       0.244   2.690  -3.296  0.00  0.00    +0.046 HD
ATOM     15  H   UNL     1      -1.747   0.384  -3.791  0.00  0.00    +0.028 HD
ATOM     16  H   UNL     1      -0.156   0.644  -4.597  0.00  0.00    +0.028 HD
ATOM     17  H   UNL     1      -0.032  -1.075  -2.787  0.00  0.00    +0.031 HD
ATOM     18  H   UNL     1       1.039   0.333  -2.449  0.00  0.00    +0.031 HD
ATOM     19  H   UNL     1      -2.509   2.567   0.531  0.00  0.00    +0.064 HD
ATOM     20  H   UNL     1      -2.384   0.843   2.240  0.00  0.00    +0.062 HD
ATOM     21  H   UNL     1      -0.103  -1.662  -0.415  0.00  0.00    +0.062 HD
BRANCH   3  22
ATOM     22  C   UNL     1      -1.906   3.837  -1.687  0.00  0.00    +0.001 C 
ATOM     23  H   UNL     1      -2.994   3.795  -1.471  0.00  0.00    +0.043 HD
ATOM     24  H   UNL     1      -1.363   4.257  -0.813  0.00  0.00    +0.043 HD
ATOM     25  H   UNL     1      -1.751   4.527  -2.544  0.00  0.00    +0.043 HD
ENDBRANCH   3  22
ENDBRANCH   1  11
BRANCH   1  26
ATOM     26  N   UNL     1      -2.419  -2.172   2.524  0.00  0.00    +0.385 N 
ATOM     27  C   UNL     1      -3.230  -2.528   1.319  0.00  0.00    -0.090 C 
ATOM     28  C   UNL     1      -4.318  -3.565   1.624  0.00  0.00    -0.068 C 
ATOM     29  C   UNL     1      -3.693  -4.891   2.083  0.00  0.00    -0.056 C 
ATOM     30  C   UNL     1      -2.340  -4.687   2.784  0.00  0.00    -0.068 C 
ATOM     31  C   UNL     1      -2.284  -3.319   3.479  0.00  0.00    -0.090 C 
ATOM     32  H   UNL     1      -2.951  -1.423   3.029  0.00  0.00    -0.081 HD
ATOM     33  H   UNL     1      -3.728  -1.619   0.913  0.00  0.00    +0.006 HD
ATOM     34  H   UNL     1      -2.581  -2.938   0.511  0.00  0.00    +0.006 HD
ATOM     35  H   UNL     1      -4.984  -3.167   2.421  0.00  0.00    +0.025 HD
ATOM     36  H   UNL     1      -4.938  -3.738   0.718  0.00  0.00    +0.025 HD
ATOM     37  H   UNL     1      -4.399  -5.400   2.775  0.00  0.00    +0.026 HD
ATOM     38  H   UNL     1      -3.545  -5.558   1.205  0.00  0.00    +0.026 HD
ATOM     39  H   UNL     1      -1.517  -4.749   2.038  0.00  0.00    +0.025 HD
ATOM     40  H   UNL     1      -2.182  -5.495   3.530  0.00  0.00    +0.025 HD
ATOM     41  H   UNL     1      -3.110  -3.279   4.226  0.00  0.00    +0.006 HD
ATOM     42  H   UNL     1      -1.353  -3.277   4.075  0.00  0.00    +0.006 HD
ENDBRANCH   1  26
BRANCH   1  43
ATOM     43  C   UNL     1      -0.317  -1.002   3.362  0.00  0.00    +0.004 C 
ATOM     44  H   UNL     1       0.241  -1.801   3.893  0.00  0.00    +0.045 HD
ATOM     45  H   UNL     1      -1.041  -0.565   4.084  0.00  0.00    +0.045 HD
BRANCH  43  46
ATOM     46  N   UNL     1       0.644   0.037   2.982  0.00  0.00    -0.309 N 
ATOM     47  C   UNL     1       1.705  -0.193   2.044  0.00  0.00    +0.299 C 
ATOM     48  O   UNL     1       2.071  -1.371   1.782  0.00  0.00    -0.265 OA
ATOM     49  H   UNL     1       0.472   1.009   3.328  0.00  0.00    +0.149 HD
BRANCH  47  50
ATOM     50  C   UNL     1       2.313   0.941   1.328  0.00  0.00    +0.303 C 
ATOM     51  O   UNL     1       2.194   2.105   1.797  0.00  0.00    -0.265 OA
ATOM     52  N   UNL     1       3.025   0.726   0.098  0.00  0.00    -0.275 N 
ATOM     53  H   UNL     1       3.373  -0.237  -0.108  0.00  0.00    +0.155 HD
BRANCH  52  54
ATOM     54  C   UNL     1       3.292   1.766  -0.861  0.00  0.00    +0.077 A 
ATOM     55  C   UNL     1       2.386   2.829  -1.045  0.00  0.00    -0.019 A 
ATOM     56  C   UNL     1       2.650   3.832  -1.982  0.00  0.00    +0.043 A 
ATOM     57  C   UNL     1       3.802   3.768  -2.765  0.00  0.00    -0.040 A 
ATOM     58  C   UNL     1       4.694   2.704  -2.616  0.00  0.00    -0.017 A 
ATOM     59  C   UNL     1       4.447   1.694  -1.666  0.00  0.00    +0.141 A 
ATOM     60 CL   UNL     1       1.530   5.169  -2.176  0.00  0.00    -0.083 Cl
ATOM     61  H   UNL     1       1.464   2.872  -0.480  0.00  0.00    +0.065 HD
ATOM     62  H   UNL     1       4.006   4.541  -3.495  0.00  0.00    +0.063 HD
ATOM     63  H   UNL     1       5.574   2.679  -3.243  0.00  0.00    +0.066 HD
BRANCH  59  64
ATOM     64  O   UNL     1       5.328   0.615  -1.487  0.00  0.00    -0.493 OA
BRANCH  64  65
ATOM     65  C   UNL     1       6.527   0.419  -2.231  0.00  0.00    +0.079 C 
ATOM     66  H   UNL     1       7.020  -0.512  -1.884  0.00  0.00    +0.066 HD
ATOM     67  H   UNL     1       6.293   0.316  -3.312  0.00  0.00    +0.066 HD
ATOM     68  H   UNL     1       7.221   1.271  -2.069  0.00  0.00    +0.066 HD
ENDBRANCH  64  65
ENDBRANCH  59  64
ENDBRANCH  52  54
ENDBRANCH  47  50
ENDBRANCH  43  46
ENDBRANCH   1  43
TORSDOF 9
