REMARK  Name = 
REMARK  9 active torsions:
REMARK  status: ('A' for Active; 'I' for Inactive)
REMARK    1  A    between atoms: C_1  and  N_2
REMARK    2  A    between atoms: C_10  and  C_12
REMARK    3  A    between atoms: C_12  and  C_13
REMARK    4  A    between atoms: C_12  and  N_29
REMARK    5  A    between atoms: C_13  and  N_14
REMARK    6  A    between atoms: C_15  and  C_17
REMARK    7  A    between atoms: N_19  and  C_20
REMARK    8  A    between atoms: C_25  and  O_26
REMARK    9  A    between atoms: O_26  and  C_27
REMARK                            x       y       z     vdW  Elec       q    Type
REMARK                         _______ _______ _______ _____ _____    ______ ____
ROOT
ATOM      1  C   UNL     1      -1.808   1.136   1.287  0.00  0.00    -0.036 C 
ATOM      2  H   UNL     1      -2.390   1.756   2.010  0.00  0.00    +0.016 HD
ENDROOT
BRANCH   1  11
ATOM      3  N   UNL     1      -5.787  -2.690  -0.579  0.00  0.00    -0.333 N 
ATOM      4  C   UNL     1      -5.525  -4.135  -0.506  0.00  0.00    +0.012 C 
ATOM      5  C   UNL     1      -4.039  -4.432  -0.697  0.00  0.00    -0.033 C 
ATOM      6  C   UNL     1      -3.214  -3.675   0.342  0.00  0.00    -0.025 C 
ATOM      7  C   UNL     1      -3.528  -2.201   0.322  0.00  0.00    -0.026 A 
ATOM      8  C   UNL     1      -4.795  -1.742  -0.101  0.00  0.00    +0.033 A 
ATOM      9  C   UNL     1      -5.057  -0.360  -0.066  0.00  0.00    -0.040 A 
ATOM     10  C   UNL     1      -4.091   0.537   0.391  0.00  0.00    -0.058 A 
ATOM     11  C   UNL     1      -2.830   0.091   0.822  0.00  0.00    -0.059 A 
ATOM     12  C   UNL     1      -2.570  -1.292   0.798  0.00  0.00    -0.055 A 
ATOM     13  H   UNL     1      -6.090  -4.675  -1.297  0.00  0.00    +0.046 HD
ATOM     14  H   UNL     1      -5.860  -4.518   0.482  0.00  0.00    +0.046 HD
ATOM     15  H   UNL     1      -3.860  -5.523  -0.590  0.00  0.00    +0.028 HD
ATOM     16  H   UNL     1      -3.727  -4.125  -1.720  0.00  0.00    +0.028 HD
ATOM     17  H   UNL     1      -2.136  -3.842   0.126  0.00  0.00    +0.031 HD
ATOM     18  H   UNL     1      -3.430  -4.076   1.356  0.00  0.00    +0.031 HD
ATOM     19  H   UNL     1      -6.007   0.041  -0.388  0.00  0.00    +0.064 HD
ATOM     20  H   UNL     1      -4.334   1.592   0.410  0.00  0.00    +0.062 HD
ATOM     21  H   UNL     1      -1.638  -1.688   1.162  0.00  0.00    +0.062 HD
BRANCH   3  22
ATOM     22  C   UNL     1      -7.112  -2.244  -1.026  0.00  0.00    +0.001 C 
ATOM     23  H   UNL     1      -7.007  -1.583  -1.912  0.00  0.00    +0.043 HD
ATOM     24  H   UNL     1      -7.757  -3.102  -1.311  0.00  0.00    +0.043 HD
ATOM     25  H   UNL     1      -7.624  -1.698  -0.206  0.00  0.00    +0.043 HD
ENDBRANCH   3  22
ENDBRANCH   1  11
BRANCH   1  26
ATOM     26  N   UNL     1      -1.400   2.058   0.177  0.00  0.00    +0.385 N 
ATOM     27  C   UNL     1      -0.974   1.358  -1.070  0.00  0.00    -0.090 C 
ATOM     28  C   UNL     1      -0.058   2.209  -1.973  0.00  0.00    -0.068 C 
ATOM     29  C   UNL     1      -0.420   3.691  -1.877  0.00  0.00    -0.056 C 
ATOM     30  C   UNL     1      -0.284   4.210  -0.435  0.00  0.00    -0.068 C 
ATOM     31  C   UNL     1      -0.429   3.090   0.616  0.00  0.00    -0.090 C 
ATOM     32  H   UNL     1      -2.266   2.593  -0.076  0.00  0.00    -0.081 HD
ATOM     33  H   UNL     1      -0.457   0.406  -0.862  0.00  0.00    +0.006 HD
ATOM     34  H   UNL     1      -1.878   1.086  -1.661  0.00  0.00    +0.006 HD
ATOM     35  H   UNL     1      -0.150   1.868  -3.027  0.00  0.00    +0.025 HD
ATOM     36  H   UNL     1       1.002   2.070  -1.666  0.00  0.00    +0.025 HD
ATOM     37  H   UNL     1       0.239   4.280  -2.550  0.00  0.00    +0.026 HD
ATOM     38  H   UNL     1      -1.467   3.828  -2.225  0.00  0.00    +0.026 HD
ATOM     39  H   UNL     1       0.708   4.695  -0.305  0.00  0.00    +0.025 HD
ATOM     40  H   UNL     1      -1.060   4.986  -0.258  0.00  0.00    +0.025 HD
ATOM     41  H   UNL     1      -0.752   3.549   1.577  0.00  0.00    +0.006 HD
ATOM     42  H   UNL     1       0.570   2.637   0.775  0.00  0.00    +0.006 HD
ENDBRANCH   1  26
BRANCH   1  43
ATOM     43  C   UNL     1      -0.642   0.593   2.180  0.00  0.00    +0.004 C 
ATOM     44  H   UNL     1      -0.284   1.423   2.826  0.00  0.00    +0.045 HD
ATOM     45  H   UNL     1      -1.030  -0.174   2.883  0.00  0.00    +0.045 HD
BRANCH  43  46
ATOM     46  N   UNL     1       0.479   0.023   1.423  0.00  0.00    -0.309 N 
ATOM     47  C   UNL     1       1.847   0.408   1.641  0.00  0.00    +0.299 C 
ATOM     48  O   UNL     1       2.142   1.193   2.583  0.00  0.00    -0.265 OA
ATOM     49  H   UNL     1       0.306  -0.798   0.805  0.00  0.00    +0.149 HD
BRANCH  47  50
ATOM     50  C   UNL     1       2.915  -0.105   0.763  0.00  0.00    +0.303 C 
ATOM     51  O   UNL     1       2.618  -0.876  -0.190  0.00  0.00    -0.265 OA
ATOM     52  N   UNL     1       4.279   0.305   0.960  0.00  0.00    -0.275 N 
ATOM     53  H   UNL     1       4.462   1.140   1.560  0.00  0.00    +0.155 HD
BRANCH  52  54
ATOM     54  C   UNL     1       5.397  -0.300   0.286  0.00  0.00    +0.077 A 
ATOM     55  C   UNL     1       5.442  -1.691   0.078  0.00  0.00    -0.019 A 
ATOM     56  C   UNL     1       6.541  -2.278  -0.556  0.00  0.00    +0.043 A 
ATOM     57  C   UNL     1       7.609  -1.484  -0.976  0.00  0.00    -0.040 A 
ATOM     58  C   UNL     1       7.587  -0.105  -0.759  0.00  0.00    -0.017 A 
ATOM     59  C   UNL     1       6.484   0.499  -0.123  0.00  0.00    +0.141 A 
ATOM     60 CL   UNL     1       6.583  -4.013  -0.811  0.00  0.00    -0.083 Cl
ATOM     61  H   UNL     1       4.637  -2.323   0.427  0.00  0.00    +0.065 HD
ATOM     62  H   UNL     1       8.463  -1.937  -1.465  0.00  0.00    +0.063 HD
ATOM     63  H   UNL     1       8.432   0.482  -1.090  0.00  0.00    +0.066 HD
BRANCH  59  64
ATOM     64  O   UNL     1       6.429   1.883   0.108  0.00  0.00    -0.493 OA
BRANCH  64  65
ATOM     65  C   UNL     1       7.452   2.804  -0.257  0.00  0.00    +0.079 C 
ATOM     66  H   UNL     1       7.603   2.791  -1.357  0.00  0.00    +0.066 HD
ATOM     67  H   UNL     1       8.399   2.549   0.263  0.00  0.00    +0.066 HD
ATOM     68  H   UNL     1       7.144   3.826   0.046  0.00  0.00    +0.066 HD
ENDBRANCH  64  65
ENDBRANCH  59  64
ENDBRANCH  52  54
ENDBRANCH  47  50
ENDBRANCH  43  46
ENDBRANCH   1  43
TORSDOF 9
