REMARK  Name = 
REMARK  9 active torsions:
REMARK  status: ('A' for Active; 'I' for Inactive)
REMARK    1  A    between atoms: C_1  and  N_2
REMARK    2  A    between atoms: C_10  and  C_12
REMARK    3  A    between atoms: C_12  and  C_13
REMARK    4  A    between atoms: C_12  and  N_29
REMARK    5  A    between atoms: C_13  and  N_14
REMARK    6  A    between atoms: C_15  and  C_17
REMARK    7  A    between atoms: N_19  and  C_20
REMARK    8  A    between atoms: C_25  and  O_26
REMARK    9  A    between atoms: O_26  and  C_27
REMARK                            x       y       z     vdW  Elec       q    Type
REMARK                         _______ _______ _______ _____ _____    ______ ____
ROOT
ATOM      1  C   UNL     1      -1.651  -1.653  -0.481  0.00  0.00    -0.036 C 
ATOM      2  H   UNL     1      -1.587  -1.466  -1.577  0.00  0.00    +0.016 HD
ENDROOT
BRANCH   1  11
ATOM      3  N   UNL     1      -3.672   3.319   1.773  0.00  0.00    -0.333 N 
ATOM      4  C   UNL     1      -4.358   4.282   0.898  0.00  0.00    +0.012 C 
ATOM      5  C   UNL     1      -5.116   3.567  -0.218  0.00  0.00    -0.033 C 
ATOM      6  C   UNL     1      -4.163   2.683  -1.020  0.00  0.00    -0.025 C 
ATOM      7  C   UNL     1      -3.409   1.738  -0.121  0.00  0.00    -0.026 A 
ATOM      8  C   UNL     1      -3.159   2.074   1.229  0.00  0.00    +0.033 A 
ATOM      9  C   UNL     1      -2.436   1.165   2.027  0.00  0.00    -0.040 A 
ATOM     10  C   UNL     1      -1.948  -0.028   1.490  0.00  0.00    -0.058 A 
ATOM     11  C   UNL     1      -2.154  -0.343   0.136  0.00  0.00    -0.059 A 
ATOM     12  C   UNL     1      -2.898   0.546  -0.656  0.00  0.00    -0.055 A 
ATOM     13  H   UNL     1      -3.607   4.975   0.459  0.00  0.00    +0.046 HD
ATOM     14  H   UNL     1      -5.088   4.886   1.481  0.00  0.00    +0.046 HD
ATOM     15  H   UNL     1      -5.925   2.943   0.222  0.00  0.00    +0.028 HD
ATOM     16  H   UNL     1      -5.582   4.317  -0.893  0.00  0.00    +0.028 HD
ATOM     17  H   UNL     1      -3.433   3.319  -1.567  0.00  0.00    +0.031 HD
ATOM     18  H   UNL     1      -4.755   2.112  -1.768  0.00  0.00    +0.031 HD
ATOM     19  H   UNL     1      -2.242   1.366   3.071  0.00  0.00    +0.064 HD
ATOM     20  H   UNL     1      -1.401  -0.691   2.143  0.00  0.00    +0.062 HD
ATOM     21  H   UNL     1      -3.084   0.310  -1.697  0.00  0.00    +0.062 HD
BRANCH   3  22
ATOM     22  C   UNL     1      -3.401   3.711   3.161  0.00  0.00    +0.001 C 
ATOM     23  H   UNL     1      -3.875   2.985   3.855  0.00  0.00    +0.043 HD
ATOM     24  H   UNL     1      -3.809   4.719   3.387  0.00  0.00    +0.043 HD
ATOM     25  H   UNL     1      -2.306   3.743   3.338  0.00  0.00    +0.043 HD
ENDBRANCH   3  22
ENDBRANCH   1  11
BRANCH   1  26
ATOM     26  N   UNL     1      -2.633  -2.770  -0.242  0.00  0.00    +0.385 N 
ATOM     27  C   UNL     1      -2.847  -3.660  -1.416  0.00  0.00    -0.090 C 
ATOM     28  C   UNL     1      -1.835  -4.806  -1.516  0.00  0.00    -0.068 C 
ATOM     29  C   UNL     1      -1.827  -5.621  -0.228  0.00  0.00    -0.056 C 
ATOM     30  C   UNL     1      -1.528  -4.725   0.969  0.00  0.00    -0.068 C 
ATOM     31  C   UNL     1      -2.492  -3.523   1.036  0.00  0.00    -0.090 C 
ATOM     32  H   UNL     1      -3.565  -2.296  -0.149  0.00  0.00    -0.081 HD
ATOM     33  H   UNL     1      -3.863  -4.117  -1.350  0.00  0.00    +0.006 HD
ATOM     34  H   UNL     1      -2.844  -3.084  -2.367  0.00  0.00    +0.006 HD
ATOM     35  H   UNL     1      -2.127  -5.470  -2.357  0.00  0.00    +0.025 HD
ATOM     36  H   UNL     1      -0.823  -4.422  -1.746  0.00  0.00    +0.025 HD
ATOM     37  H   UNL     1      -2.815  -6.113  -0.089  0.00  0.00    +0.026 HD
ATOM     38  H   UNL     1      -1.054  -6.416  -0.298  0.00  0.00    +0.026 HD
ATOM     39  H   UNL     1      -0.470  -4.402   0.938  0.00  0.00    +0.025 HD
ATOM     40  H   UNL     1      -1.642  -5.324   1.899  0.00  0.00    +0.025 HD
ATOM     41  H   UNL     1      -2.183  -2.851   1.862  0.00  0.00    +0.006 HD
ATOM     42  H   UNL     1      -3.490  -3.921   1.334  0.00  0.00    +0.006 HD
ENDBRANCH   1  26
BRANCH   1  43
ATOM     43  C   UNL     1      -0.182  -1.950  -0.077  0.00  0.00    +0.004 C 
ATOM     44  H   UNL     1      -0.097  -2.136   1.012  0.00  0.00    +0.045 HD
ATOM     45  H   UNL     1       0.182  -2.847  -0.610  0.00  0.00    +0.045 HD
BRANCH  43  46
ATOM     46  N   UNL     1       0.706  -0.839  -0.430  0.00  0.00    -0.309 N 
ATOM     47  C   UNL     1       2.099  -0.860  -0.088  0.00  0.00    +0.299 C 
ATOM     48  O   UNL     1       2.584  -1.860   0.507  0.00  0.00    -0.265 OA
ATOM     49  H   UNL     1       0.324  -0.013  -0.945  0.00  0.00    +0.149 HD
BRANCH  47  50
ATOM     50  C   UNL     1       2.971   0.284  -0.419  0.00  0.00    +0.303 C 
ATOM     51  O   UNL     1       2.481   1.289  -1.002  0.00  0.00    -0.265 OA
ATOM     52  N   UNL     1       4.374   0.242  -0.110  0.00  0.00    -0.275 N 
ATOM     53  H   UNL     1       4.805  -0.686   0.100  0.00  0.00    +0.155 HD
BRANCH  52  54
ATOM     54  C   UNL     1       5.239   1.391  -0.174  0.00  0.00    +0.077 A 
ATOM     55  C   UNL     1       4.784   2.655   0.243  0.00  0.00    -0.019 A 
ATOM     56  C   UNL     1       5.633   3.763   0.204  0.00  0.00    +0.043 A 
ATOM     57  C   UNL     1       6.948   3.618  -0.241  0.00  0.00    -0.040 A 
ATOM     58  C   UNL     1       7.419   2.366  -0.641  0.00  0.00    -0.017 A 
ATOM     59  C   UNL     1       6.572   1.241  -0.607  0.00  0.00    +0.141 A 
ATOM     60 CL   UNL     1       5.052   5.334   0.726  0.00  0.00    -0.083 Cl
ATOM     61  H   UNL     1       3.777   2.777   0.623  0.00  0.00    +0.065 HD
ATOM     62  H   UNL     1       7.610   4.475  -0.271  0.00  0.00    +0.063 HD
ATOM     63  H   UNL     1       8.444   2.284  -0.975  0.00  0.00    +0.066 HD
BRANCH  59  64
ATOM     64  O   UNL     1       7.014  -0.032  -1.004  0.00  0.00    -0.493 OA
BRANCH  64  65
ATOM     65  C   UNL     1       8.330  -0.323  -1.463  0.00  0.00    +0.079 C 
ATOM     66  H   UNL     1       8.399  -1.403  -1.704  0.00  0.00    +0.066 HD
ATOM     67  H   UNL     1       8.552   0.261  -2.382  0.00  0.00    +0.066 HD
ATOM     68  H   UNL     1       9.072  -0.087  -0.671  0.00  0.00    +0.066 HD
ENDBRANCH  64  65
ENDBRANCH  59  64
ENDBRANCH  52  54
ENDBRANCH  47  50
ENDBRANCH  43  46
ENDBRANCH   1  43
TORSDOF 9
