REMARK  Name = 
REMARK  9 active torsions:
REMARK  status: ('A' for Active; 'I' for Inactive)
REMARK    1  A    between atoms: C_1  and  N_2
REMARK    2  A    between atoms: C_10  and  C_12
REMARK    3  A    between atoms: C_12  and  C_13
REMARK    4  A    between atoms: C_12  and  N_29
REMARK    5  A    between atoms: C_13  and  N_14
REMARK    6  A    between atoms: C_15  and  C_17
REMARK    7  A    between atoms: N_19  and  C_20
REMARK    8  A    between atoms: C_25  and  O_26
REMARK    9  A    between atoms: O_26  and  C_27
REMARK                            x       y       z     vdW  Elec       q    Type
REMARK                         _______ _______ _______ _____ _____    ______ ____
ROOT
ATOM      1  C   UNL     1      -1.063   0.289   0.675  0.00  0.00    -0.036 C 
ATOM      2  H   UNL     1      -0.838   0.854   1.611  0.00  0.00    +0.016 HD
ENDROOT
BRANCH   1  11
ATOM      3  N   UNL     1      -6.556  -1.524   1.296  0.00  0.00    -0.333 N 
ATOM      4  C   UNL     1      -7.001  -2.772   0.657  0.00  0.00    +0.012 C 
ATOM      5  C   UNL     1      -6.260  -3.010  -0.657  0.00  0.00    -0.033 C 
ATOM      6  C   UNL     1      -4.752  -3.029  -0.414  0.00  0.00    -0.025 C 
ATOM      7  C   UNL     1      -4.298  -1.782   0.300  0.00  0.00    -0.026 A 
ATOM      8  C   UNL     1      -5.182  -1.076   1.147  0.00  0.00    +0.033 A 
ATOM      9  C   UNL     1      -4.709   0.075   1.806  0.00  0.00    -0.040 A 
ATOM     10  C   UNL     1      -3.387   0.494   1.651  0.00  0.00    -0.058 A 
ATOM     11  C   UNL     1      -2.491  -0.228   0.848  0.00  0.00    -0.059 A 
ATOM     12  C   UNL     1      -2.965  -1.364   0.166  0.00  0.00    -0.055 A 
ATOM     13  H   UNL     1      -8.091  -2.729   0.437  0.00  0.00    +0.046 HD
ATOM     14  H   UNL     1      -6.820  -3.622   1.350  0.00  0.00    +0.046 HD
ATOM     15  H   UNL     1      -6.577  -3.982  -1.093  0.00  0.00    +0.028 HD
ATOM     16  H   UNL     1      -6.513  -2.203  -1.379  0.00  0.00    +0.028 HD
ATOM     17  H   UNL     1      -4.237  -3.119  -1.396  0.00  0.00    +0.031 HD
ATOM     18  H   UNL     1      -4.482  -3.915   0.200  0.00  0.00    +0.031 HD
ATOM     19  H   UNL     1      -5.354   0.665   2.442  0.00  0.00    +0.064 HD
ATOM     20  H   UNL     1      -3.060   1.391   2.163  0.00  0.00    +0.062 HD
ATOM     21  H   UNL     1      -2.305  -1.934  -0.473  0.00  0.00    +0.062 HD
BRANCH   3  22
ATOM     22  C   UNL     1      -7.490  -0.827   2.188  0.00  0.00    +0.001 C 
ATOM     23  H   UNL     1      -7.659   0.207   1.821  0.00  0.00    +0.043 HD
ATOM     24  H   UNL     1      -7.080  -0.800   3.219  0.00  0.00    +0.043 HD
ATOM     25  H   UNL     1      -8.474  -1.342   2.231  0.00  0.00    +0.043 HD
ENDBRANCH   3  22
ENDBRANCH   1  11
BRANCH   1  26
ATOM     26  N   UNL     1      -0.979   1.240  -0.484  0.00  0.00    +0.385 N 
ATOM     27  C   UNL     1      -0.776   0.583  -1.797  0.00  0.00    -0.090 C 
ATOM     28  C   UNL     1      -1.024   1.565  -2.961  0.00  0.00    -0.068 C 
ATOM     29  C   UNL     1      -0.674   3.017  -2.595  0.00  0.00    -0.056 C 
ATOM     30  C   UNL     1       0.430   3.071  -1.539  0.00  0.00    -0.068 C 
ATOM     31  C   UNL     1       0.022   2.319  -0.252  0.00  0.00    -0.090 C 
ATOM     32  H   UNL     1      -1.907   1.729  -0.537  0.00  0.00    -0.081 HD
ATOM     33  H   UNL     1       0.266   0.204  -1.878  0.00  0.00    +0.006 HD
ATOM     34  H   UNL     1      -1.465  -0.278  -1.922  0.00  0.00    +0.006 HD
ATOM     35  H   UNL     1      -0.418   1.245  -3.836  0.00  0.00    +0.025 HD
ATOM     36  H   UNL     1      -2.094   1.521  -3.262  0.00  0.00    +0.025 HD
ATOM     37  H   UNL     1      -0.347   3.563  -3.506  0.00  0.00    +0.026 HD
ATOM     38  H   UNL     1      -1.577   3.532  -2.200  0.00  0.00    +0.026 HD
ATOM     39  H   UNL     1       0.664   4.130  -1.296  0.00  0.00    +0.025 HD
ATOM     40  H   UNL     1       1.352   2.612  -1.960  0.00  0.00    +0.025 HD
ATOM     41  H   UNL     1      -0.400   3.057   0.469  0.00  0.00    +0.006 HD
ATOM     42  H   UNL     1       0.948   1.927   0.211  0.00  0.00    +0.006 HD
ENDBRANCH   1  26
BRANCH   1  43
ATOM     43  C   UNL     1      -0.032  -0.881   0.661  0.00  0.00    +0.004 C 
ATOM     44  H   UNL     1      -0.288  -1.589   1.478  0.00  0.00    +0.045 HD
ATOM     45  H   UNL     1      -0.085  -1.467  -0.278  0.00  0.00    +0.045 HD
BRANCH  43  46
ATOM     46  N   UNL     1       1.329  -0.404   0.907  0.00  0.00    -0.309 N 
ATOM     47  C   UNL     1       2.416  -0.618  -0.008  0.00  0.00    +0.299 C 
ATOM     48  O   UNL     1       2.270  -1.388  -0.996  0.00  0.00    -0.265 OA
ATOM     49  H   UNL     1       1.508   0.109   1.800  0.00  0.00    +0.149 HD
BRANCH  47  50
ATOM     50  C   UNL     1       3.711   0.055   0.202  0.00  0.00    +0.303 C 
ATOM     51  O   UNL     1       3.861   0.821   1.193  0.00  0.00    -0.265 OA
ATOM     52  N   UNL     1       4.785  -0.127  -0.735  0.00  0.00    -0.275 N 
ATOM     53  H   UNL     1       4.558  -0.496  -1.686  0.00  0.00    +0.155 HD
BRANCH  52  54
ATOM     54  C   UNL     1       6.112   0.376  -0.512  0.00  0.00    +0.077 A 
ATOM     55  C   UNL     1       6.747   1.094  -1.536  0.00  0.00    -0.019 A 
ATOM     56  C   UNL     1       8.037   1.597  -1.355  0.00  0.00    +0.043 A 
ATOM     57  C   UNL     1       8.710   1.373  -0.152  0.00  0.00    -0.040 A 
ATOM     58  C   UNL     1       8.100   0.635   0.866  0.00  0.00    -0.017 A 
ATOM     59  C   UNL     1       6.801   0.117   0.692  0.00  0.00    +0.141 A 
ATOM     60 CL   UNL     1       8.812   2.511  -2.636  0.00  0.00    -0.083 Cl
ATOM     61  H   UNL     1       6.228   1.275  -2.470  0.00  0.00    +0.065 HD
ATOM     62  H   UNL     1       9.709   1.762  -0.007  0.00  0.00    +0.063 HD
ATOM     63  H   UNL     1       8.653   0.464   1.779  0.00  0.00    +0.066 HD
BRANCH  59  64
ATOM     64  O   UNL     1       6.184  -0.674   1.675  0.00  0.00    -0.493 OA
BRANCH  64  65
ATOM     65  C   UNL     1       6.767  -1.006   2.930  0.00  0.00    +0.079 C 
ATOM     66  H   UNL     1       7.704  -1.581   2.776  0.00  0.00    +0.066 HD
ATOM     67  H   UNL     1       6.975  -0.082   3.510  0.00  0.00    +0.066 HD
ATOM     68  H   UNL     1       6.056  -1.633   3.505  0.00  0.00    +0.066 HD
ENDBRANCH  64  65
ENDBRANCH  59  64
ENDBRANCH  52  54
ENDBRANCH  47  50
ENDBRANCH  43  46
ENDBRANCH   1  43
TORSDOF 9
