REMARK  Name = 
REMARK  9 active torsions:
REMARK  status: ('A' for Active; 'I' for Inactive)
REMARK    1  A    between atoms: C_1  and  N_2
REMARK    2  A    between atoms: C_10  and  C_12
REMARK    3  A    between atoms: C_12  and  C_13
REMARK    4  A    between atoms: C_12  and  N_29
REMARK    5  A    between atoms: C_13  and  N_14
REMARK    6  A    between atoms: C_15  and  C_17
REMARK    7  A    between atoms: N_19  and  C_20
REMARK    8  A    between atoms: C_25  and  O_26
REMARK    9  A    between atoms: O_26  and  C_27
REMARK                            x       y       z     vdW  Elec       q    Type
REMARK                         _______ _______ _______ _____ _____    ______ ____
ROOT
ATOM      1  C   UNL     1      -0.891   2.021   0.185  0.00  0.00    -0.036 C 
ATOM      2  H   UNL     1      -0.225   1.880   1.067  0.00  0.00    +0.016 HD
ENDROOT
BRANCH   1  11
ATOM      3  N   UNL     1      -3.235  -3.228  -0.709  0.00  0.00    -0.333 N 
ATOM      4  C   UNL     1      -3.325  -4.178   0.411  0.00  0.00    +0.012 C 
ATOM      5  C   UNL     1      -3.537  -3.446   1.735  0.00  0.00    -0.033 C 
ATOM      6  C   UNL     1      -2.414  -2.436   1.964  0.00  0.00    -0.025 C 
ATOM      7  C   UNL     1      -2.272  -1.502   0.790  0.00  0.00    -0.026 A 
ATOM      8  C   UNL     1      -2.654  -1.913  -0.507  0.00  0.00    +0.033 A 
ATOM      9  C   UNL     1      -2.486  -1.010  -1.576  0.00  0.00    -0.040 A 
ATOM     10  C   UNL     1      -1.925   0.250  -1.367  0.00  0.00    -0.058 A 
ATOM     11  C   UNL     1      -1.503   0.645  -0.086  0.00  0.00    -0.059 A 
ATOM     12  C   UNL     1      -1.693  -0.240   0.987  0.00  0.00    -0.055 A 
ATOM     13  H   UNL     1      -4.178  -4.876   0.262  0.00  0.00    +0.046 HD
ATOM     14  H   UNL     1      -2.390  -4.777   0.458  0.00  0.00    +0.046 HD
ATOM     15  H   UNL     1      -4.517  -2.919   1.717  0.00  0.00    +0.028 HD
ATOM     16  H   UNL     1      -3.551  -4.181   2.569  0.00  0.00    +0.028 HD
ATOM     17  H   UNL     1      -1.453  -2.973   2.115  0.00  0.00    +0.031 HD
ATOM     18  H   UNL     1      -2.639  -1.861   2.889  0.00  0.00    +0.031 HD
ATOM     19  H   UNL     1      -2.789  -1.268  -2.581  0.00  0.00    +0.064 HD
ATOM     20  H   UNL     1      -1.825   0.912  -2.216  0.00  0.00    +0.062 HD
ATOM     21  H   UNL     1      -1.388   0.054   1.985  0.00  0.00    +0.062 HD
BRANCH   3  22
ATOM     22  C   UNL     1      -3.617  -3.693  -2.047  0.00  0.00    +0.001 C 
ATOM     23  H   UNL     1      -2.739  -3.656  -2.726  0.00  0.00    +0.043 HD
ATOM     24  H   UNL     1      -4.432  -3.055  -2.449  0.00  0.00    +0.043 HD
ATOM     25  H   UNL     1      -3.981  -4.743  -2.026  0.00  0.00    +0.043 HD
ENDBRANCH   3  22
ENDBRANCH   1  11
BRANCH   1  26
ATOM     26  N   UNL     1      -1.940   3.014   0.573  0.00  0.00    +0.385 N 
ATOM     27  C   UNL     1      -1.353   4.203   1.238  0.00  0.00    -0.090 C 
ATOM     28  C   UNL     1      -2.451   5.117   1.803  0.00  0.00    -0.068 C 
ATOM     29  C   UNL     1      -3.420   5.541   0.696  0.00  0.00    -0.056 C 
ATOM     30  C   UNL     1      -3.968   4.318  -0.043  0.00  0.00    -0.068 C 
ATOM     31  C   UNL     1      -2.819   3.431  -0.548  0.00  0.00    -0.090 C 
ATOM     32  H   UNL     1      -2.546   2.540   1.288  0.00  0.00    -0.081 HD
ATOM     33  H   UNL     1      -0.738   4.795   0.526  0.00  0.00    +0.006 HD
ATOM     34  H   UNL     1      -0.698   3.893   2.083  0.00  0.00    +0.006 HD
ATOM     35  H   UNL     1      -1.987   6.021   2.253  0.00  0.00    +0.025 HD
ATOM     36  H   UNL     1      -3.009   4.582   2.603  0.00  0.00    +0.025 HD
ATOM     37  H   UNL     1      -2.894   6.206  -0.024  0.00  0.00    +0.026 HD
ATOM     38  H   UNL     1      -4.263   6.113   1.141  0.00  0.00    +0.026 HD
ATOM     39  H   UNL     1      -4.622   3.730   0.638  0.00  0.00    +0.025 HD
ATOM     40  H   UNL     1      -4.583   4.653  -0.905  0.00  0.00    +0.025 HD
ATOM     41  H   UNL     1      -3.272   2.547  -1.041  0.00  0.00    +0.006 HD
ATOM     42  H   UNL     1      -2.248   4.004  -1.311  0.00  0.00    +0.006 HD
ENDBRANCH   1  26
BRANCH   1  43
ATOM     43  C   UNL     1       0.059   2.498  -0.952  0.00  0.00    +0.004 C 
ATOM     44  H   UNL     1      -0.507   2.729  -1.876  0.00  0.00    +0.045 HD
ATOM     45  H   UNL     1       0.588   3.428  -0.659  0.00  0.00    +0.045 HD
BRANCH  43  46
ATOM     46  N   UNL     1       1.056   1.472  -1.263  0.00  0.00    -0.309 N 
ATOM     47  C   UNL     1       2.147   1.161  -0.382  0.00  0.00    +0.299 C 
ATOM     48  O   UNL     1       2.356   1.872   0.638  0.00  0.00    -0.265 OA
ATOM     49  H   UNL     1       0.973   0.969  -2.175  0.00  0.00    +0.149 HD
BRANCH  47  50
ATOM     50  C   UNL     1       3.033   0.015  -0.665  0.00  0.00    +0.303 C 
ATOM     51  O   UNL     1       2.827  -0.689  -1.691  0.00  0.00    -0.265 OA
ATOM     52  N   UNL     1       4.096  -0.323   0.242  0.00  0.00    -0.275 N 
ATOM     53  H   UNL     1       4.075   0.089   1.202  0.00  0.00    +0.155 HD
BRANCH  52  54
ATOM     54  C   UNL     1       5.122  -1.286  -0.059  0.00  0.00    +0.077 A 
ATOM     55  C   UNL     1       5.681  -1.359  -1.348  0.00  0.00    -0.019 A 
ATOM     56  C   UNL     1       6.695  -2.278  -1.629  0.00  0.00    +0.043 A 
ATOM     57  C   UNL     1       7.169  -3.124  -0.625  0.00  0.00    -0.040 A 
ATOM     58  C   UNL     1       6.636  -3.049   0.663  0.00  0.00    -0.017 A 
ATOM     59  C   UNL     1       5.612  -2.128   0.960  0.00  0.00    +0.141 A 
ATOM     60 CL   UNL     1       7.383  -2.360  -3.241  0.00  0.00    -0.083 Cl
ATOM     61  H   UNL     1       5.349  -0.687  -2.128  0.00  0.00    +0.065 HD
ATOM     62  H   UNL     1       7.955  -3.836  -0.840  0.00  0.00    +0.063 HD
ATOM     63  H   UNL     1       7.027  -3.713   1.422  0.00  0.00    +0.066 HD
BRANCH  59  64
ATOM     64  O   UNL     1       5.053  -2.030   2.245  0.00  0.00    -0.493 OA
BRANCH  64  65
ATOM     65  C   UNL     1       5.449  -2.820   3.361  0.00  0.00    +0.079 C 
ATOM     66  H   UNL     1       5.273  -3.896   3.148  0.00  0.00    +0.066 HD
ATOM     67  H   UNL     1       4.844  -2.530   4.243  0.00  0.00    +0.066 HD
ATOM     68  H   UNL     1       6.521  -2.645   3.591  0.00  0.00    +0.066 HD
ENDBRANCH  64  65
ENDBRANCH  59  64
ENDBRANCH  52  54
ENDBRANCH  47  50
ENDBRANCH  43  46
ENDBRANCH   1  43
TORSDOF 9
