REMARK  Name = 
REMARK  16 active torsions:
REMARK  status: ('A' for Active; 'I' for Inactive)
REMARK    1  A    between atoms: C_1  and  C_2
REMARK    2  A    between atoms: C_2  and  C_3
REMARK    3  A    between atoms: C_3  and  O_4
REMARK    4  A    between atoms: O_4  and  C_5
REMARK    5  A    between atoms: C_8  and  C_15
REMARK    6  A    between atoms: C_10  and  O_11
REMARK    7  A    between atoms: O_11  and  C_12
REMARK    8  A    between atoms: C_12  and  C_13
REMARK    9  A    between atoms: C_13  and  C_14
REMARK   10  A    between atoms: C_15  and  C_16
REMARK   11  A    between atoms: C_15  and  N_17
REMARK   12  A    between atoms: C_18  and  C_20
REMARK   13  A    between atoms: C_20  and  O_21
REMARK   14  A    between atoms: O_21  and  C_22
REMARK   15  A    between atoms: C_25  and  C_31
REMARK   16  A    between atoms: C_27  and  N_28
REMARK                            x       y       z     vdW  Elec       q    Type
REMARK                         _______ _______ _______ _____ _____    ______ ____
ROOT
ATOM      1  C   UNL     1      -0.976  -1.531   0.211  0.00  0.00    +0.162 A 
ATOM      2  C   UNL     1      -0.279  -1.916  -0.948  0.00  0.00    -0.016 A 
ATOM      3  C   UNL     1      -0.335  -1.132  -2.100  0.00  0.00    -0.053 A 
ATOM      4  C   UNL     1      -1.087   0.051  -2.123  0.00  0.00    -0.024 A 
ATOM      5  C   UNL     1      -1.755   0.455  -0.953  0.00  0.00    -0.011 A 
ATOM      6  C   UNL     1      -1.723  -0.343   0.209  0.00  0.00    +0.162 A 
ATOM      7  H   UNL     1       0.312  -2.821  -0.969  0.00  0.00    +0.066 HD
ATOM      8  H   UNL     1       0.220  -1.447  -2.975  0.00  0.00    +0.062 HD
ATOM      9  H   UNL     1      -2.291   1.391  -0.950  0.00  0.00    +0.066 HD
ENDROOT
BRANCH   4  10
ATOM     10  C   UNL     1      -1.076   0.917  -3.368  0.00  0.00    +0.046 C 
ATOM     11  H   UNL     1      -0.750   0.301  -4.236  0.00  0.00    +0.055 HD
BRANCH  10  12
ATOM     12  C   UNL     1      -2.467   1.446  -3.739  0.00  0.00    -0.042 C 
ATOM     13  H   UNL     1      -3.195   0.608  -3.787  0.00  0.00    +0.025 HD
ATOM     14  H   UNL     1      -2.826   2.200  -3.009  0.00  0.00    +0.025 HD
ATOM     15  H   UNL     1      -2.425   1.931  -4.737  0.00  0.00    +0.025 HD
ENDBRANCH  10  12
BRANCH  10  16
ATOM     16  N   UNL     1      -0.142   2.028  -3.178  0.00  0.00    -0.306 N 
ATOM     17  C   UNL     1       1.249   1.908  -3.511  0.00  0.00    +0.251 C 
ATOM     18  O   UNL     1       1.638   1.016  -4.312  0.00  0.00    -0.272 OA
ATOM     19  H   UNL     1      -0.444   2.831  -2.581  0.00  0.00    +0.149 HD
BRANCH  17  20
ATOM     20  C   UNL     1       2.264   2.820  -2.891  0.00  0.00    +0.165 C 
ATOM     21  H   UNL     1       1.791   3.600  -2.259  0.00  0.00    +0.079 HD
ATOM     22  H   UNL     1       2.809   3.343  -3.704  0.00  0.00    +0.079 HD
BRANCH  20  23
ATOM     23  O   UNL     1       3.204   2.058  -2.133  0.00  0.00    -0.480 OA
BRANCH  23  24
ATOM     24  C   UNL     1       2.922   1.354  -0.948  0.00  0.00    +0.151 A 
ATOM     25  C   UNL     1       1.732   1.578  -0.230  0.00  0.00    -0.017 A 
ATOM     26  C   UNL     1       1.460   0.864   0.935  0.00  0.00    -0.044 A 
ATOM     27  C   UNL     1       2.357  -0.101   1.407  0.00  0.00    +0.066 A 
ATOM     28  C   UNL     1       3.546  -0.329   0.698  0.00  0.00    -0.014 A 
ATOM     29  C   UNL     1       3.849   0.398  -0.471  0.00  0.00    +0.168 A 
ATOM     30  H   UNL     1       1.008   2.309  -0.557  0.00  0.00    +0.065 HD
ATOM     31  H   UNL     1       0.539   1.066   1.464  0.00  0.00    +0.063 HD
ATOM     32  H   UNL     1       4.249  -1.066   1.064  0.00  0.00    +0.065 HD
BRANCH  29  33
ATOM     33  N   UNL     1       5.088   0.144  -1.166  0.00  0.00    +0.060 N 
ATOM     34  O   UNL     1       5.771  -0.866  -0.892  0.00  0.00    -0.126 OA
ATOM     35  O   UNL     1       5.575   1.028  -2.101  0.00  0.00    -0.126 OA
ENDBRANCH  29  33
BRANCH  27  36
ATOM     36  C   UNL     1       2.062  -0.863   2.641  0.00  0.00    +0.387 C 
ATOM     37  O   UNL     1       1.018  -0.626   3.306  0.00  0.00    -0.241 OA
ATOM     38  O   UNL     1       2.930  -1.854   3.084  0.00  0.00    -0.241 OA
ENDBRANCH  27  36
ENDBRANCH  23  24
ENDBRANCH  20  23
ENDBRANCH  17  20
ENDBRANCH  10  16
ENDBRANCH   4  10
BRANCH   6  39
ATOM     39  O   UNL     1      -2.418   0.002   1.382  0.00  0.00    -0.488 OA
BRANCH  39  40
ATOM     40  C   UNL     1      -3.205   1.180   1.570  0.00  0.00    +0.090 C 
ATOM     41  H   UNL     1      -3.851   1.364   0.685  0.00  0.00    +0.070 HD
ATOM     42  H   UNL     1      -3.887   1.014   2.430  0.00  0.00    +0.070 HD
BRANCH  40  43
ATOM     43  C   UNL     1      -2.318   2.396   1.857  0.00  0.00    -0.021 C 
ATOM     44  H   UNL     1      -1.542   2.501   1.070  0.00  0.00    +0.030 HD
ATOM     45  H   UNL     1      -2.946   3.313   1.840  0.00  0.00    +0.030 HD
BRANCH  43  46
ATOM     46  C   UNL     1      -1.643   2.290   3.223  0.00  0.00    -0.062 C 
ATOM     47  H   UNL     1      -0.972   3.161   3.375  0.00  0.00    +0.023 HD
ATOM     48  H   UNL     1      -2.406   2.285   4.029  0.00  0.00    +0.023 HD
ATOM     49  H   UNL     1      -1.040   1.361   3.290  0.00  0.00    +0.023 HD
ENDBRANCH  43  46
ENDBRANCH  40  43
ENDBRANCH  39  40
ENDBRANCH   6  39
BRANCH   1  50
ATOM     50  O   UNL     1      -0.944  -2.295   1.387  0.00  0.00    -0.488 OA
BRANCH  50  51
ATOM     51  C   UNL     1      -0.227  -3.519   1.538  0.00  0.00    +0.090 C 
ATOM     52  H   UNL     1      -0.602  -4.271   0.809  0.00  0.00    +0.070 HD
ATOM     53  H   UNL     1       0.854  -3.341   1.350  0.00  0.00    +0.070 HD
BRANCH  51  54
ATOM     54  C   UNL     1      -0.394  -4.050   2.961  0.00  0.00    -0.021 C 
ATOM     55  H   UNL     1      -0.041  -3.286   3.687  0.00  0.00    +0.030 HD
ATOM     56  H   UNL     1       0.233  -4.959   3.084  0.00  0.00    +0.030 HD
BRANCH  54  57
ATOM     57  C   UNL     1      -1.847  -4.405   3.267  0.00  0.00    -0.062 C 
ATOM     58  H   UNL     1      -2.214  -5.176   2.556  0.00  0.00    +0.023 HD
ATOM     59  H   UNL     1      -2.491  -3.503   3.195  0.00  0.00    +0.023 HD
ATOM     60  H   UNL     1      -1.921  -4.810   4.298  0.00  0.00    +0.023 HD
ENDBRANCH  54  57
ENDBRANCH  51  54
ENDBRANCH  50  51
ENDBRANCH   1  50
TORSDOF 16
