REMARK  Name = 
REMARK  16 active torsions:
REMARK  status: ('A' for Active; 'I' for Inactive)
REMARK    1  A    between atoms: C_1  and  C_2
REMARK    2  A    between atoms: C_2  and  C_3
REMARK    3  A    between atoms: C_3  and  O_4
REMARK    4  A    between atoms: O_4  and  C_5
REMARK    5  A    between atoms: C_8  and  C_15
REMARK    6  A    between atoms: C_10  and  O_11
REMARK    7  A    between atoms: O_11  and  C_12
REMARK    8  A    between atoms: C_12  and  C_13
REMARK    9  A    between atoms: C_13  and  C_14
REMARK   10  A    between atoms: C_15  and  C_16
REMARK   11  A    between atoms: C_15  and  N_17
REMARK   12  A    between atoms: C_18  and  C_20
REMARK   13  A    between atoms: C_20  and  O_21
REMARK   14  A    between atoms: O_21  and  C_22
REMARK   15  A    between atoms: C_25  and  C_31
REMARK   16  A    between atoms: C_27  and  N_28
REMARK                            x       y       z     vdW  Elec       q    Type
REMARK                         _______ _______ _______ _____ _____    ______ ____
ROOT
ATOM      1  C   UNL     1       1.340  -1.225   0.060  0.00  0.00    +0.162 A 
ATOM      2  C   UNL     1       1.858  -1.057   1.348  0.00  0.00    -0.016 A 
ATOM      3  C   UNL     1       1.033  -0.713   2.416  0.00  0.00    -0.053 A 
ATOM      4  C   UNL     1      -0.346  -0.550   2.224  0.00  0.00    -0.024 A 
ATOM      5  C   UNL     1      -0.875  -0.695   0.931  0.00  0.00    -0.011 A 
ATOM      6  C   UNL     1      -0.048  -1.032  -0.161  0.00  0.00    +0.162 A 
ATOM      7  H   UNL     1       2.920  -1.183   1.520  0.00  0.00    +0.066 HD
ATOM      8  H   UNL     1       1.478  -0.562   3.390  0.00  0.00    +0.062 HD
ATOM      9  H   UNL     1      -1.931  -0.524   0.786  0.00  0.00    +0.066 HD
ENDROOT
BRANCH   4  10
ATOM     10  C   UNL     1      -1.244  -0.117   3.366  0.00  0.00    +0.046 C 
ATOM     11  H   UNL     1      -2.309  -0.164   3.044  0.00  0.00    +0.055 HD
BRANCH  10  12
ATOM     12  C   UNL     1      -1.126  -1.048   4.577  0.00  0.00    -0.042 C 
ATOM     13  H   UNL     1      -1.874  -0.756   5.345  0.00  0.00    +0.025 HD
ATOM     14  H   UNL     1      -1.327  -2.097   4.273  0.00  0.00    +0.025 HD
ATOM     15  H   UNL     1      -0.118  -0.990   5.038  0.00  0.00    +0.025 HD
ENDBRANCH  10  12
BRANCH  10  16
ATOM     16  N   UNL     1      -0.911   1.256   3.744  0.00  0.00    -0.306 N 
ATOM     17  C   UNL     1      -1.492   2.371   3.058  0.00  0.00    +0.251 C 
ATOM     18  O   UNL     1      -2.684   2.317   2.651  0.00  0.00    -0.272 OA
ATOM     19  H   UNL     1      -0.022   1.419   4.269  0.00  0.00    +0.149 HD
BRANCH  17  20
ATOM     20  C   UNL     1      -0.667   3.590   2.784  0.00  0.00    +0.165 C 
ATOM     21  H   UNL     1      -1.265   4.385   2.290  0.00  0.00    +0.079 HD
ATOM     22  H   UNL     1      -0.306   3.996   3.752  0.00  0.00    +0.079 HD
BRANCH  20  23
ATOM     23  O   UNL     1       0.465   3.244   1.984  0.00  0.00    -0.480 OA
BRANCH  23  24
ATOM     24  C   UNL     1       0.426   2.826   0.641  0.00  0.00    +0.151 A 
ATOM     25  C   UNL     1      -0.763   2.882  -0.111  0.00  0.00    -0.017 A 
ATOM     26  C   UNL     1      -0.779   2.502  -1.452  0.00  0.00    -0.044 A 
ATOM     27  C   UNL     1       0.392   2.064  -2.081  0.00  0.00    +0.066 A 
ATOM     28  C   UNL     1       1.580   1.992  -1.336  0.00  0.00    -0.014 A 
ATOM     29  C   UNL     1       1.610   2.358   0.025  0.00  0.00    +0.168 A 
ATOM     30  H   UNL     1      -1.686   3.236   0.325  0.00  0.00    +0.065 HD
ATOM     31  H   UNL     1      -1.712   2.564  -1.999  0.00  0.00    +0.063 HD
ATOM     32  H   UNL     1       2.483   1.633  -1.812  0.00  0.00    +0.065 HD
BRANCH  29  33
ATOM     33  N   UNL     1       2.844   2.242   0.766  0.00  0.00    +0.060 N 
ATOM     34  O   UNL     1       3.923   2.048   0.169  0.00  0.00    -0.126 OA
ATOM     35  O   UNL     1       2.851   2.260   2.142  0.00  0.00    -0.126 OA
ENDBRANCH  29  33
BRANCH  27  36
ATOM     36  C   UNL     1       0.371   1.689  -3.513  0.00  0.00    +0.387 C 
ATOM     37  O   UNL     1       1.440   1.404  -4.116  0.00  0.00    -0.241 OA
ATOM     38  O   UNL     1      -0.828   1.654  -4.214  0.00  0.00    -0.241 OA
ENDBRANCH  27  36
ENDBRANCH  23  24
ENDBRANCH  20  23
ENDBRANCH  17  20
ENDBRANCH  10  16
ENDBRANCH   4  10
BRANCH   6  39
ATOM     39  O   UNL     1      -0.569  -1.158  -1.460  0.00  0.00    -0.488 OA
BRANCH  39  40
ATOM     40  C   UNL     1      -1.940  -1.027  -1.837  0.00  0.00    +0.090 C 
ATOM     41  H   UNL     1      -2.390  -0.121  -1.379  0.00  0.00    +0.070 HD
ATOM     42  H   UNL     1      -1.978  -0.889  -2.939  0.00  0.00    +0.070 HD
BRANCH  40  43
ATOM     43  C   UNL     1      -2.721  -2.293  -1.475  0.00  0.00    -0.021 C 
ATOM     44  H   UNL     1      -2.277  -3.161  -2.009  0.00  0.00    +0.030 HD
ATOM     45  H   UNL     1      -2.654  -2.488  -0.384  0.00  0.00    +0.030 HD
BRANCH  43  46
ATOM     46  C   UNL     1      -4.190  -2.164  -1.864  0.00  0.00    -0.062 C 
ATOM     47  H   UNL     1      -4.727  -3.100  -1.603  0.00  0.00    +0.023 HD
ATOM     48  H   UNL     1      -4.287  -1.992  -2.957  0.00  0.00    +0.023 HD
ATOM     49  H   UNL     1      -4.660  -1.319  -1.316  0.00  0.00    +0.023 HD
ENDBRANCH  43  46
ENDBRANCH  40  43
ENDBRANCH  39  40
ENDBRANCH   6  39
BRANCH   1  50
ATOM     50  O   UNL     1       2.261  -1.570  -0.946  0.00  0.00    -0.488 OA
BRANCH  50  51
ATOM     51  C   UNL     1       1.962  -1.828  -2.314  0.00  0.00    +0.090 C 
ATOM     52  H   UNL     1       1.514  -0.923  -2.774  0.00  0.00    +0.070 HD
ATOM     53  H   UNL     1       1.256  -2.684  -2.387  0.00  0.00    +0.070 HD
BRANCH  51  54
ATOM     54  C   UNL     1       3.252  -2.171  -3.055  0.00  0.00    -0.021 C 
ATOM     55  H   UNL     1       3.709  -3.076  -2.600  0.00  0.00    +0.030 HD
ATOM     56  H   UNL     1       3.969  -1.327  -2.957  0.00  0.00    +0.030 HD
BRANCH  54  57
ATOM     57  C   UNL     1       2.987  -2.432  -4.534  0.00  0.00    -0.062 C 
ATOM     58  H   UNL     1       2.285  -3.285  -4.656  0.00  0.00    +0.023 HD
ATOM     59  H   UNL     1       2.553  -1.529  -5.013  0.00  0.00    +0.023 HD
ATOM     60  H   UNL     1       3.941  -2.681  -5.045  0.00  0.00    +0.023 HD
ENDBRANCH  54  57
ENDBRANCH  51  54
ENDBRANCH  50  51
ENDBRANCH   1  50
TORSDOF 16
