REMARK  Name = 
REMARK  16 active torsions:
REMARK  status: ('A' for Active; 'I' for Inactive)
REMARK    1  A    between atoms: C_1  and  C_2
REMARK    2  A    between atoms: C_2  and  C_3
REMARK    3  A    between atoms: C_3  and  O_4
REMARK    4  A    between atoms: O_4  and  C_5
REMARK    5  A    between atoms: C_8  and  C_15
REMARK    6  A    between atoms: C_10  and  O_11
REMARK    7  A    between atoms: O_11  and  C_12
REMARK    8  A    between atoms: C_12  and  C_13
REMARK    9  A    between atoms: C_13  and  C_14
REMARK   10  A    between atoms: C_15  and  C_16
REMARK   11  A    between atoms: C_15  and  N_17
REMARK   12  A    between atoms: C_18  and  C_20
REMARK   13  A    between atoms: C_20  and  O_21
REMARK   14  A    between atoms: O_21  and  C_22
REMARK   15  A    between atoms: C_25  and  C_31
REMARK   16  A    between atoms: C_27  and  N_28
REMARK                            x       y       z     vdW  Elec       q    Type
REMARK                         _______ _______ _______ _____ _____    ______ ____
ROOT
ATOM      1  C   UNL     1      -2.076  -0.017   0.360  0.00  0.00    +0.162 A 
ATOM      2  C   UNL     1      -2.362   0.469  -0.928  0.00  0.00    -0.016 A 
ATOM      3  C   UNL     1      -1.897  -0.207  -2.057  0.00  0.00    -0.053 A 
ATOM      4  C   UNL     1      -1.170  -1.402  -1.924  0.00  0.00    -0.024 A 
ATOM      5  C   UNL     1      -0.853  -1.863  -0.636  0.00  0.00    -0.011 A 
ATOM      6  C   UNL     1      -1.301  -1.176   0.508  0.00  0.00    +0.162 A 
ATOM      7  H   UNL     1      -2.934   1.375  -1.068  0.00  0.00    +0.066 HD
ATOM      8  H   UNL     1      -2.107   0.209  -3.033  0.00  0.00    +0.062 HD
ATOM      9  H   UNL     1      -0.258  -2.759  -0.536  0.00  0.00    +0.066 HD
ENDROOT
BRANCH   4  10
ATOM     10  C   UNL     1      -0.638  -2.144  -3.136  0.00  0.00    +0.046 C 
ATOM     11  H   UNL     1      -0.343  -3.175  -2.836  0.00  0.00    +0.055 HD
BRANCH  10  12
ATOM     12  C   UNL     1      -1.696  -2.322  -4.232  0.00  0.00    -0.042 C 
ATOM     13  H   UNL     1      -1.962  -1.354  -4.704  0.00  0.00    +0.025 HD
ATOM     14  H   UNL     1      -2.613  -2.786  -3.808  0.00  0.00    +0.025 HD
ATOM     15  H   UNL     1      -1.300  -2.992  -5.025  0.00  0.00    +0.025 HD
ENDBRANCH  10  12
BRANCH  10  16
ATOM     16  N   UNL     1       0.533  -1.442  -3.662  0.00  0.00    -0.306 N 
ATOM     17  C   UNL     1       1.839  -1.635  -3.101  0.00  0.00    +0.251 C 
ATOM     18  O   UNL     1       2.084  -2.649  -2.392  0.00  0.00    -0.272 OA
ATOM     19  H   UNL     1       0.380  -0.630  -4.303  0.00  0.00    +0.149 HD
BRANCH  17  20
ATOM     20  C   UNL     1       2.923  -0.627  -3.327  0.00  0.00    +0.165 C 
ATOM     21  H   UNL     1       3.772  -1.133  -3.832  0.00  0.00    +0.079 HD
ATOM     22  H   UNL     1       2.590   0.199  -3.990  0.00  0.00    +0.079 HD
BRANCH  20  23
ATOM     23  O   UNL     1       3.381  -0.112  -2.077  0.00  0.00    -0.480 OA
BRANCH  23  24
ATOM     24  C   UNL     1       2.643   0.715  -1.211  0.00  0.00    +0.151 A 
ATOM     25  C   UNL     1       1.426   1.299  -1.610  0.00  0.00    -0.017 A 
ATOM     26  C   UNL     1       0.728   2.149  -0.754  0.00  0.00    -0.044 A 
ATOM     27  C   UNL     1       1.224   2.435   0.524  0.00  0.00    +0.066 A 
ATOM     28  C   UNL     1       2.432   1.850   0.933  0.00  0.00    -0.014 A 
ATOM     29  C   UNL     1       3.147   0.986   0.083  0.00  0.00    +0.168 A 
ATOM     30  H   UNL     1       1.013   1.119  -2.591  0.00  0.00    +0.065 HD
ATOM     31  H   UNL     1      -0.202   2.586  -1.097  0.00  0.00    +0.063 HD
ATOM     32  H   UNL     1       2.817   2.061   1.923  0.00  0.00    +0.065 HD
BRANCH  29  33
ATOM     33  N   UNL     1       4.378   0.396   0.549  0.00  0.00    +0.060 N 
ATOM     34  O   UNL     1       4.858  -0.616  -0.003  0.00  0.00    -0.126 OA
ATOM     35  O   UNL     1       5.008   0.895   1.666  0.00  0.00    -0.126 OA
ENDBRANCH  29  33
BRANCH  27  36
ATOM     36  C   UNL     1       0.487   3.353   1.420  0.00  0.00    +0.387 C 
ATOM     37  O   UNL     1       0.852   3.512   2.615  0.00  0.00    -0.241 OA
ATOM     38  O   UNL     1      -0.612   4.061   0.951  0.00  0.00    -0.241 OA
ENDBRANCH  27  36
ENDBRANCH  23  24
ENDBRANCH  20  23
ENDBRANCH  17  20
ENDBRANCH  10  16
ENDBRANCH   4  10
BRANCH   6  39
ATOM     39  O   UNL     1      -1.011  -1.613   1.812  0.00  0.00    -0.488 OA
BRANCH  39  40
ATOM     40  C   UNL     1      -0.053  -2.615   2.159  0.00  0.00    +0.090 C 
ATOM     41  H   UNL     1      -0.209  -2.896   3.223  0.00  0.00    +0.070 HD
ATOM     42  H   UNL     1      -0.213  -3.536   1.561  0.00  0.00    +0.070 HD
BRANCH  40  43
ATOM     43  C   UNL     1       1.378  -2.093   1.984  0.00  0.00    -0.021 C 
ATOM     44  H   UNL     1       2.090  -2.918   2.202  0.00  0.00    +0.030 HD
ATOM     45  H   UNL     1       1.542  -1.766   0.935  0.00  0.00    +0.030 HD
BRANCH  43  46
ATOM     46  C   UNL     1       1.668  -0.928   2.927  0.00  0.00    -0.062 C 
ATOM     47  H   UNL     1       1.520  -1.238   3.983  0.00  0.00    +0.023 HD
ATOM     48  H   UNL     1       2.721  -0.602   2.801  0.00  0.00    +0.023 HD
ATOM     49  H   UNL     1       1.000  -0.070   2.700  0.00  0.00    +0.023 HD
ENDBRANCH  43  46
ENDBRANCH  40  43
ENDBRANCH  39  40
ENDBRANCH   6  39
BRANCH   1  50
ATOM     50  O   UNL     1      -2.535   0.626   1.520  0.00  0.00    -0.488 OA
BRANCH  50  51
ATOM     51  C   UNL     1      -3.391   1.766   1.530  0.00  0.00    +0.090 C 
ATOM     52  H   UNL     1      -4.335   1.525   0.994  0.00  0.00    +0.070 HD
ATOM     53  H   UNL     1      -2.897   2.620   1.020  0.00  0.00    +0.070 HD
BRANCH  51  54
ATOM     54  C   UNL     1      -3.731   2.147   2.971  0.00  0.00    -0.021 C 
ATOM     55  H   UNL     1      -4.183   1.273   3.487  0.00  0.00    +0.030 HD
ATOM     56  H   UNL     1      -4.478   2.970   2.963  0.00  0.00    +0.030 HD
BRANCH  54  57
ATOM     57  C   UNL     1      -2.496   2.608   3.743  0.00  0.00    -0.062 C 
ATOM     58  H   UNL     1      -1.726   1.807   3.765  0.00  0.00    +0.023 HD
ATOM     59  H   UNL     1      -2.068   3.518   3.275  0.00  0.00    +0.023 HD
ATOM     60  H   UNL     1      -2.783   2.851   4.788  0.00  0.00    +0.023 HD
ENDBRANCH  54  57
ENDBRANCH  51  54
ENDBRANCH  50  51
ENDBRANCH   1  50
TORSDOF 16
