REMARK  Name = 
REMARK  16 active torsions:
REMARK  status: ('A' for Active; 'I' for Inactive)
REMARK    1  A    between atoms: C_1  and  C_2
REMARK    2  A    between atoms: C_2  and  C_3
REMARK    3  A    between atoms: C_3  and  O_4
REMARK    4  A    between atoms: O_4  and  C_5
REMARK    5  A    between atoms: C_8  and  C_15
REMARK    6  A    between atoms: C_10  and  O_11
REMARK    7  A    between atoms: O_11  and  C_12
REMARK    8  A    between atoms: C_12  and  C_13
REMARK    9  A    between atoms: C_13  and  C_14
REMARK   10  A    between atoms: C_15  and  C_16
REMARK   11  A    between atoms: C_15  and  N_17
REMARK   12  A    between atoms: C_18  and  C_20
REMARK   13  A    between atoms: C_20  and  O_21
REMARK   14  A    between atoms: O_21  and  C_22
REMARK   15  A    between atoms: C_25  and  C_31
REMARK   16  A    between atoms: C_27  and  N_28
REMARK                            x       y       z     vdW  Elec       q    Type
REMARK                         _______ _______ _______ _____ _____    ______ ____
ROOT
ATOM      1  C   UNL     1      -2.933   1.073   0.317  0.00  0.00    +0.162 A 
ATOM      2  C   UNL     1      -2.965   1.637   1.606  0.00  0.00    -0.016 A 
ATOM      3  C   UNL     1      -1.940   1.379   2.517  0.00  0.00    -0.053 A 
ATOM      4  C   UNL     1      -0.860   0.560   2.159  0.00  0.00    -0.024 A 
ATOM      5  C   UNL     1      -0.835  -0.018   0.878  0.00  0.00    -0.011 A 
ATOM      6  C   UNL     1      -1.864   0.241  -0.049  0.00  0.00    +0.162 A 
ATOM      7  H   UNL     1      -3.780   2.277   1.915  0.00  0.00    +0.066 HD
ATOM      8  H   UNL     1      -1.990   1.819   3.505  0.00  0.00    +0.062 HD
ATOM      9  H   UNL     1      -0.008  -0.659   0.613  0.00  0.00    +0.066 HD
ENDROOT
BRANCH   4  10
ATOM     10  C   UNL     1       0.231   0.264   3.168  0.00  0.00    +0.046 C 
ATOM     11  H   UNL     1       0.233   1.043   3.963  0.00  0.00    +0.055 HD
BRANCH  10  12
ATOM     12  C   UNL     1      -0.038  -1.084   3.843  0.00  0.00    -0.042 C 
ATOM     13  H   UNL     1       0.747  -1.290   4.601  0.00  0.00    +0.025 HD
ATOM     14  H   UNL     1      -0.037  -1.905   3.094  0.00  0.00    +0.025 HD
ATOM     15  H   UNL     1      -1.024  -1.065   4.356  0.00  0.00    +0.025 HD
ENDBRANCH  10  12
BRANCH  10  16
ATOM     16  N   UNL     1       1.550   0.263   2.526  0.00  0.00    -0.306 N 
ATOM     17  C   UNL     1       2.108   1.442   1.928  0.00  0.00    +0.251 C 
ATOM     18  O   UNL     1       1.555   2.563   2.094  0.00  0.00    -0.272 OA
ATOM     19  H   UNL     1       2.092  -0.629   2.461  0.00  0.00    +0.149 HD
BRANCH  17  20
ATOM     20  C   UNL     1       3.363   1.351   1.120  0.00  0.00    +0.165 C 
ATOM     21  H   UNL     1       3.505   2.291   0.544  0.00  0.00    +0.079 HD
ATOM     22  H   UNL     1       4.224   1.202   1.807  0.00  0.00    +0.079 HD
BRANCH  20  23
ATOM     23  O   UNL     1       3.266   0.249   0.221  0.00  0.00    -0.480 OA
BRANCH  23  24
ATOM     24  C   UNL     1       4.258  -0.131  -0.697  0.00  0.00    +0.151 A 
ATOM     25  C   UNL     1       5.436   0.622  -0.858  0.00  0.00    -0.017 A 
ATOM     26  C   UNL     1       6.393   0.254  -1.804  0.00  0.00    -0.044 A 
ATOM     27  C   UNL     1       6.198  -0.874  -2.612  0.00  0.00    +0.066 A 
ATOM     28  C   UNL     1       5.029  -1.635  -2.449  0.00  0.00    -0.014 A 
ATOM     29  C   UNL     1       4.060  -1.284  -1.491  0.00  0.00    +0.168 A 
ATOM     30  H   UNL     1       5.620   1.504  -0.259  0.00  0.00    +0.065 HD
ATOM     31  H   UNL     1       7.286   0.859  -1.904  0.00  0.00    +0.063 HD
ATOM     32  H   UNL     1       4.877  -2.517  -3.058  0.00  0.00    +0.065 HD
BRANCH  29  33
ATOM     33  N   UNL     1       2.887  -2.107  -1.336  0.00  0.00    +0.060 N 
ATOM     34  O   UNL     1       2.241  -2.108  -0.268  0.00  0.00    -0.126 OA
ATOM     35  O   UNL     1       2.517  -2.983  -2.331  0.00  0.00    -0.126 OA
ENDBRANCH  29  33
BRANCH  27  36
ATOM     36  C   UNL     1       7.215  -1.256  -3.617  0.00  0.00    +0.387 C 
ATOM     37  O   UNL     1       7.046  -2.269  -4.347  0.00  0.00    -0.241 OA
ATOM     38  O   UNL     1       8.372  -0.500  -3.771  0.00  0.00    -0.241 OA
ENDBRANCH  27  36
ENDBRANCH  23  24
ENDBRANCH  20  23
ENDBRANCH  17  20
ENDBRANCH  10  16
ENDBRANCH   4  10
BRANCH   6  39
ATOM     39  O   UNL     1      -1.863  -0.300  -1.347  0.00  0.00    -0.488 OA
BRANCH  39  40
ATOM     40  C   UNL     1      -0.905  -1.222  -1.868  0.00  0.00    +0.090 C 
ATOM     41  H   UNL     1      -1.009  -1.248  -2.974  0.00  0.00    +0.070 HD
ATOM     42  H   UNL     1       0.127  -0.874  -1.654  0.00  0.00    +0.070 HD
BRANCH  40  43
ATOM     43  C   UNL     1      -1.131  -2.635  -1.315  0.00  0.00    -0.021 C 
ATOM     44  H   UNL     1      -1.031  -2.638  -0.210  0.00  0.00    +0.030 HD
ATOM     45  H   UNL     1      -0.351  -3.310  -1.728  0.00  0.00    +0.030 HD
BRANCH  43  46
ATOM     46  C   UNL     1      -2.506  -3.178  -1.695  0.00  0.00    -0.062 C 
ATOM     47  H   UNL     1      -3.307  -2.548  -1.254  0.00  0.00    +0.023 HD
ATOM     48  H   UNL     1      -2.622  -3.200  -2.800  0.00  0.00    +0.023 HD
ATOM     49  H   UNL     1      -2.616  -4.212  -1.306  0.00  0.00    +0.023 HD
ENDBRANCH  43  46
ENDBRANCH  40  43
ENDBRANCH  39  40
ENDBRANCH   6  39
BRANCH   1  50
ATOM     50  O   UNL     1      -3.944   1.312  -0.626  0.00  0.00    -0.488 OA
BRANCH  50  51
ATOM     51  C   UNL     1      -5.090   2.128  -0.396  0.00  0.00    +0.090 C 
ATOM     52  H   UNL     1      -4.765   3.164  -0.156  0.00  0.00    +0.070 HD
ATOM     53  H   UNL     1      -5.674   1.714   0.455  0.00  0.00    +0.070 HD
BRANCH  51  54
ATOM     54  C   UNL     1      -5.959   2.144  -1.651  0.00  0.00    -0.021 C 
ATOM     55  H   UNL     1      -5.369   2.545  -2.503  0.00  0.00    +0.030 HD
ATOM     56  H   UNL     1      -6.271   1.106  -1.897  0.00  0.00    +0.030 HD
BRANCH  54  57
ATOM     57  C   UNL     1      -7.202   3.007  -1.453  0.00  0.00    -0.062 C 
ATOM     58  H   UNL     1      -7.811   2.998  -2.381  0.00  0.00    +0.023 HD
ATOM     59  H   UNL     1      -6.912   4.055  -1.228  0.00  0.00    +0.023 HD
ATOM     60  H   UNL     1      -7.819   2.609  -0.619  0.00  0.00    +0.023 HD
ENDBRANCH  54  57
ENDBRANCH  51  54
ENDBRANCH  50  51
ENDBRANCH   1  50
TORSDOF 16
