REMARK  Name = 
REMARK  16 active torsions:
REMARK  status: ('A' for Active; 'I' for Inactive)
REMARK    1  A    between atoms: C_1  and  C_2
REMARK    2  A    between atoms: C_2  and  C_3
REMARK    3  A    between atoms: C_3  and  O_4
REMARK    4  A    between atoms: O_4  and  C_5
REMARK    5  A    between atoms: C_8  and  C_15
REMARK    6  A    between atoms: C_10  and  O_11
REMARK    7  A    between atoms: O_11  and  C_12
REMARK    8  A    between atoms: C_12  and  C_13
REMARK    9  A    between atoms: C_13  and  C_14
REMARK   10  A    between atoms: C_15  and  C_16
REMARK   11  A    between atoms: C_15  and  N_17
REMARK   12  A    between atoms: C_18  and  C_20
REMARK   13  A    between atoms: C_20  and  O_21
REMARK   14  A    between atoms: O_21  and  C_22
REMARK   15  A    between atoms: C_25  and  C_31
REMARK   16  A    between atoms: C_27  and  N_28
REMARK                            x       y       z     vdW  Elec       q    Type
REMARK                         _______ _______ _______ _____ _____    ______ ____
ROOT
ATOM      1  C   UNL     1       0.432   1.124   1.046  0.00  0.00    +0.162 A 
ATOM      2  C   UNL     1       1.665   0.678   1.532  0.00  0.00    -0.016 A 
ATOM      3  C   UNL     1       1.888  -0.671   1.797  0.00  0.00    -0.053 A 
ATOM      4  C   UNL     1       0.873  -1.615   1.598  0.00  0.00    -0.024 A 
ATOM      5  C   UNL     1      -0.358  -1.183   1.074  0.00  0.00    -0.011 A 
ATOM      6  C   UNL     1      -0.590   0.178   0.783  0.00  0.00    +0.162 A 
ATOM      7  H   UNL     1       2.462   1.391   1.706  0.00  0.00    +0.066 HD
ATOM      8  H   UNL     1       2.861  -0.979   2.159  0.00  0.00    +0.062 HD
ATOM      9  H   UNL     1      -1.131  -1.907   0.876  0.00  0.00    +0.066 HD
ENDROOT
BRANCH   4  10
ATOM     10  C   UNL     1       1.176  -3.084   1.846  0.00  0.00    +0.046 C 
ATOM     11  H   UNL     1       1.951  -3.131   2.645  0.00  0.00    +0.055 HD
BRANCH  10  12
ATOM     12  C   UNL     1      -0.005  -3.896   2.397  0.00  0.00    -0.042 C 
ATOM     13  H   UNL     1      -0.412  -3.401   3.305  0.00  0.00    +0.025 HD
ATOM     14  H   UNL     1       0.344  -4.911   2.682  0.00  0.00    +0.025 HD
ATOM     15  H   UNL     1      -0.822  -4.013   1.660  0.00  0.00    +0.025 HD
ENDBRANCH  10  12
BRANCH  10  16
ATOM     16  N   UNL     1       1.746  -3.701   0.643  0.00  0.00    -0.306 N 
ATOM     17  C   UNL     1       1.095  -3.718  -0.637  0.00  0.00    +0.251 C 
ATOM     18  O   UNL     1      -0.160  -3.768  -0.723  0.00  0.00    -0.272 OA
ATOM     19  H   UNL     1       2.761  -3.949   0.671  0.00  0.00    +0.149 HD
BRANCH  17  20
ATOM     20  C   UNL     1       1.919  -3.641  -1.883  0.00  0.00    +0.165 C 
ATOM     21  H   UNL     1       2.639  -4.485  -1.884  0.00  0.00    +0.079 HD
ATOM     22  H   UNL     1       1.293  -3.738  -2.796  0.00  0.00    +0.079 HD
BRANCH  20  23
ATOM     23  O   UNL     1       2.653  -2.417  -1.900  0.00  0.00    -0.480 OA
BRANCH  23  24
ATOM     24  C   UNL     1       2.098  -1.131  -2.030  0.00  0.00    +0.151 A 
ATOM     25  C   UNL     1       0.766  -0.943  -2.448  0.00  0.00    -0.017 A 
ATOM     26  C   UNL     1       0.249   0.340  -2.624  0.00  0.00    -0.044 A 
ATOM     27  C   UNL     1       1.045   1.468  -2.383  0.00  0.00    +0.066 A 
ATOM     28  C   UNL     1       2.366   1.288  -1.944  0.00  0.00    -0.014 A 
ATOM     29  C   UNL     1       2.902   0.001  -1.758  0.00  0.00    +0.168 A 
ATOM     30  H   UNL     1       0.121  -1.783  -2.658  0.00  0.00    +0.065 HD
ATOM     31  H   UNL     1      -0.777   0.448  -2.953  0.00  0.00    +0.063 HD
ATOM     32  H   UNL     1       2.979   2.155  -1.736  0.00  0.00    +0.065 HD
BRANCH  29  33
ATOM     33  N   UNL     1       4.257  -0.138  -1.281  0.00  0.00    +0.060 N 
ATOM     34  O   UNL     1       4.660  -1.211  -0.786  0.00  0.00    -0.126 OA
ATOM     35  O   UNL     1       5.109   0.943  -1.287  0.00  0.00    -0.126 OA
ENDBRANCH  29  33
BRANCH  27  36
ATOM     36  C   UNL     1       0.504   2.831  -2.582  0.00  0.00    +0.387 C 
ATOM     37  O   UNL     1      -0.655   2.998  -3.047  0.00  0.00    -0.241 OA
ATOM     38  O   UNL     1       1.267   3.947  -2.261  0.00  0.00    -0.241 OA
ENDBRANCH  27  36
ENDBRANCH  23  24
ENDBRANCH  20  23
ENDBRANCH  17  20
ENDBRANCH  10  16
ENDBRANCH   4  10
BRANCH   6  39
ATOM     39  O   UNL     1      -1.803   0.596   0.216  0.00  0.00    -0.488 OA
BRANCH  39  40
ATOM     40  C   UNL     1      -2.905  -0.259  -0.083  0.00  0.00    +0.090 C 
ATOM     41  H   UNL     1      -2.597  -1.036  -0.816  0.00  0.00    +0.070 HD
ATOM     42  H   UNL     1      -3.250  -0.755   0.850  0.00  0.00    +0.070 HD
BRANCH  40  43
ATOM     43  C   UNL     1      -4.062   0.561  -0.652  0.00  0.00    -0.021 C 
ATOM     44  H   UNL     1      -4.314   1.386   0.050  0.00  0.00    +0.030 HD
ATOM     45  H   UNL     1      -4.955  -0.094  -0.751  0.00  0.00    +0.030 HD
BRANCH  43  46
ATOM     46  C   UNL     1      -3.725   1.144  -2.022  0.00  0.00    -0.062 C 
ATOM     47  H   UNL     1      -2.862   1.836  -1.945  0.00  0.00    +0.023 HD
ATOM     48  H   UNL     1      -4.597   1.711  -2.409  0.00  0.00    +0.023 HD
ATOM     49  H   UNL     1      -3.482   0.332  -2.739  0.00  0.00    +0.023 HD
ENDBRANCH  43  46
ENDBRANCH  40  43
ENDBRANCH  39  40
ENDBRANCH   6  39
BRANCH   1  50
ATOM     50  O   UNL     1       0.306   2.510   0.832  0.00  0.00    -0.488 OA
BRANCH  50  51
ATOM     51  C   UNL     1      -0.900   3.260   0.678  0.00  0.00    +0.090 C 
ATOM     52  H   UNL     1      -0.625   4.311   0.446  0.00  0.00    +0.070 HD
ATOM     53  H   UNL     1      -1.483   2.904  -0.193  0.00  0.00    +0.070 HD
BRANCH  51  54
ATOM     54  C   UNL     1      -1.745   3.245   1.958  0.00  0.00    -0.021 C 
ATOM     55  H   UNL     1      -2.032   2.206   2.222  0.00  0.00    +0.030 HD
ATOM     56  H   UNL     1      -2.679   3.819   1.777  0.00  0.00    +0.030 HD
BRANCH  54  57
ATOM     57  C   UNL     1      -1.000   3.870   3.135  0.00  0.00    -0.062 C 
ATOM     58  H   UNL     1      -0.719   4.919   2.901  0.00  0.00    +0.023 HD
ATOM     59  H   UNL     1      -1.656   3.870   4.031  0.00  0.00    +0.023 HD
ATOM     60  H   UNL     1      -0.085   3.287   3.368  0.00  0.00    +0.023 HD
ENDBRANCH  54  57
ENDBRANCH  51  54
ENDBRANCH  50  51
ENDBRANCH   1  50
TORSDOF 16
