REMARK  Name = 
REMARK  16 active torsions:
REMARK  status: ('A' for Active; 'I' for Inactive)
REMARK    1  A    between atoms: C_1  and  C_2
REMARK    2  A    between atoms: C_2  and  C_3
REMARK    3  A    between atoms: C_3  and  O_4
REMARK    4  A    between atoms: O_4  and  C_5
REMARK    5  A    between atoms: C_8  and  C_15
REMARK    6  A    between atoms: C_10  and  O_11
REMARK    7  A    between atoms: O_11  and  C_12
REMARK    8  A    between atoms: C_12  and  C_13
REMARK    9  A    between atoms: C_13  and  C_14
REMARK   10  A    between atoms: C_15  and  C_16
REMARK   11  A    between atoms: C_15  and  N_17
REMARK   12  A    between atoms: C_18  and  C_20
REMARK   13  A    between atoms: C_20  and  O_21
REMARK   14  A    between atoms: O_21  and  C_22
REMARK   15  A    between atoms: C_25  and  C_31
REMARK   16  A    between atoms: C_27  and  N_28
REMARK                            x       y       z     vdW  Elec       q    Type
REMARK                         _______ _______ _______ _____ _____    ______ ____
ROOT
ATOM      1  C   UNL     1       3.526   0.746  -0.327  0.00  0.00    +0.162 A 
ATOM      2  C   UNL     1       2.731   1.715  -0.968  0.00  0.00    -0.016 A 
ATOM      3  C   UNL     1       1.401   1.901  -0.589  0.00  0.00    -0.053 A 
ATOM      4  C   UNL     1       0.837   1.124   0.433  0.00  0.00    -0.024 A 
ATOM      5  C   UNL     1       1.630   0.162   1.078  0.00  0.00    -0.011 A 
ATOM      6  C   UNL     1       2.971  -0.039   0.696  0.00  0.00    +0.162 A 
ATOM      7  H   UNL     1       3.125   2.330  -1.764  0.00  0.00    +0.066 HD
ATOM      8  H   UNL     1       0.808   2.652  -1.096  0.00  0.00    +0.062 HD
ATOM      9  H   UNL     1       1.193  -0.424   1.874  0.00  0.00    +0.066 HD
ENDROOT
BRANCH   4  10
ATOM     10  C   UNL     1      -0.603   1.329   0.853  0.00  0.00    +0.046 C 
ATOM     11  H   UNL     1      -0.923   0.517   1.543  0.00  0.00    +0.055 HD
BRANCH  10  12
ATOM     12  C   UNL     1      -0.752   2.649   1.616  0.00  0.00    -0.042 C 
ATOM     13  H   UNL     1      -1.804   2.775   1.950  0.00  0.00    +0.025 HD
ATOM     14  H   UNL     1      -0.477   3.512   0.973  0.00  0.00    +0.025 HD
ATOM     15  H   UNL     1      -0.098   2.646   2.514  0.00  0.00    +0.025 HD
ENDBRANCH  10  12
BRANCH  10  16
ATOM     16  N   UNL     1      -1.484   1.308  -0.319  0.00  0.00    -0.306 N 
ATOM     17  C   UNL     1      -1.753   0.099  -1.044  0.00  0.00    +0.251 C 
ATOM     18  O   UNL     1      -1.189  -0.980  -0.713  0.00  0.00    -0.272 OA
ATOM     19  H   UNL     1      -1.945   2.192  -0.633  0.00  0.00    +0.149 HD
BRANCH  17  20
ATOM     20  C   UNL     1      -2.694   0.106  -2.211  0.00  0.00    +0.165 C 
ATOM     21  H   UNL     1      -2.110  -0.107  -3.130  0.00  0.00    +0.079 HD
ATOM     22  H   UNL     1      -3.174   1.099  -2.347  0.00  0.00    +0.079 HD
BRANCH  20  23
ATOM     23  O   UNL     1      -3.688  -0.907  -2.060  0.00  0.00    -0.480 OA
BRANCH  23  24
ATOM     24  C   UNL     1      -4.729  -0.902  -1.114  0.00  0.00    +0.151 A 
ATOM     25  C   UNL     1      -4.952   0.205  -0.273  0.00  0.00    -0.017 A 
ATOM     26  C   UNL     1      -6.001   0.204   0.645  0.00  0.00    -0.044 A 
ATOM     27  C   UNL     1      -6.857  -0.901   0.746  0.00  0.00    +0.066 A 
ATOM     28  C   UNL     1      -6.641  -2.008  -0.089  0.00  0.00    -0.014 A 
ATOM     29  C   UNL     1      -5.581  -2.026  -1.017  0.00  0.00    +0.168 A 
ATOM     30  H   UNL     1      -4.325   1.083  -0.324  0.00  0.00    +0.065 HD
ATOM     31  H   UNL     1      -6.143   1.073   1.276  0.00  0.00    +0.063 HD
ATOM     32  H   UNL     1      -7.294  -2.868  -0.010  0.00  0.00    +0.065 HD
BRANCH  29  33
ATOM     33  N   UNL     1      -5.384  -3.189  -1.849  0.00  0.00    +0.060 N 
ATOM     34  O   UNL     1      -6.283  -4.049  -1.956  0.00  0.00    -0.126 OA
ATOM     35  O   UNL     1      -4.187  -3.411  -2.490  0.00  0.00    -0.126 OA
ENDBRANCH  29  33
BRANCH  27  36
ATOM     36  C   UNL     1      -7.973  -0.903   1.720  0.00  0.00    +0.387 C 
ATOM     37  O   UNL     1      -8.168   0.089   2.472  0.00  0.00    -0.241 OA
ATOM     38  O   UNL     1      -8.822  -1.999   1.817  0.00  0.00    -0.241 OA
ENDBRANCH  27  36
ENDBRANCH  23  24
ENDBRANCH  20  23
ENDBRANCH  17  20
ENDBRANCH  10  16
ENDBRANCH   4  10
BRANCH   6  39
ATOM     39  O   UNL     1       3.793  -1.001   1.309  0.00  0.00    -0.488 OA
BRANCH  39  40
ATOM     40  C   UNL     1       3.370  -1.968   2.272  0.00  0.00    +0.090 C 
ATOM     41  H   UNL     1       4.278  -2.406   2.737  0.00  0.00    +0.070 HD
ATOM     42  H   UNL     1       2.786  -1.483   3.083  0.00  0.00    +0.070 HD
BRANCH  40  43
ATOM     43  C   UNL     1       2.573  -3.088   1.597  0.00  0.00    -0.021 C 
ATOM     44  H   UNL     1       1.677  -2.672   1.091  0.00  0.00    +0.030 HD
ATOM     45  H   UNL     1       3.208  -3.578   0.827  0.00  0.00    +0.030 HD
BRANCH  43  46
ATOM     46  C   UNL     1       2.124  -4.134   2.613  0.00  0.00    -0.062 C 
ATOM     47  H   UNL     1       1.554  -4.934   2.095  0.00  0.00    +0.023 HD
ATOM     48  H   UNL     1       1.467  -3.669   3.379  0.00  0.00    +0.023 HD
ATOM     49  H   UNL     1       3.005  -4.590   3.112  0.00  0.00    +0.023 HD
ENDBRANCH  43  46
ENDBRANCH  40  43
ENDBRANCH  39  40
ENDBRANCH   6  39
BRANCH   1  50
ATOM     50  O   UNL     1       4.869   0.521  -0.679  0.00  0.00    -0.488 OA
BRANCH  50  51
ATOM     51  C   UNL     1       5.626   1.291  -1.614  0.00  0.00    +0.090 C 
ATOM     52  H   UNL     1       5.057   1.432  -2.557  0.00  0.00    +0.070 HD
ATOM     53  H   UNL     1       6.544   0.717  -1.865  0.00  0.00    +0.070 HD
BRANCH  51  54
ATOM     54  C   UNL     1       6.037   2.632  -1.000  0.00  0.00    -0.021 C 
ATOM     55  H   UNL     1       6.640   2.447  -0.085  0.00  0.00    +0.030 HD
ATOM     56  H   UNL     1       5.137   3.213  -0.709  0.00  0.00    +0.030 HD
BRANCH  54  57
ATOM     57  C   UNL     1       6.862   3.459  -1.982  0.00  0.00    -0.062 C 
ATOM     58  H   UNL     1       7.149   4.421  -1.509  0.00  0.00    +0.023 HD
ATOM     59  H   UNL     1       6.268   3.675  -2.896  0.00  0.00    +0.023 HD
ATOM     60  H   UNL     1       7.787   2.912  -2.266  0.00  0.00    +0.023 HD
ENDBRANCH  54  57
ENDBRANCH  51  54
ENDBRANCH  50  51
ENDBRANCH   1  50
TORSDOF 16
