REMARK  Name = 
REMARK  16 active torsions:
REMARK  status: ('A' for Active; 'I' for Inactive)
REMARK    1  A    between atoms: C_1  and  C_2
REMARK    2  A    between atoms: C_2  and  C_3
REMARK    3  A    between atoms: C_3  and  O_4
REMARK    4  A    between atoms: O_4  and  C_5
REMARK    5  A    between atoms: C_8  and  C_15
REMARK    6  A    between atoms: C_10  and  O_11
REMARK    7  A    between atoms: O_11  and  C_12
REMARK    8  A    between atoms: C_12  and  C_13
REMARK    9  A    between atoms: C_13  and  C_14
REMARK   10  A    between atoms: C_15  and  C_16
REMARK   11  A    between atoms: C_15  and  N_17
REMARK   12  A    between atoms: C_18  and  C_20
REMARK   13  A    between atoms: C_20  and  O_21
REMARK   14  A    between atoms: O_21  and  C_22
REMARK   15  A    between atoms: C_25  and  C_31
REMARK   16  A    between atoms: C_27  and  N_28
REMARK                            x       y       z     vdW  Elec       q    Type
REMARK                         _______ _______ _______ _____ _____    ______ ____
ROOT
ATOM      1  C   UNL     1      -2.439  -0.082  -1.159  0.00  0.00    +0.162 A 
ATOM      2  C   UNL     1      -1.115   0.141  -1.579  0.00  0.00    -0.016 A 
ATOM      3  C   UNL     1      -0.047  -0.142  -0.729  0.00  0.00    -0.053 A 
ATOM      4  C   UNL     1      -0.277  -0.654   0.559  0.00  0.00    -0.024 A 
ATOM      5  C   UNL     1      -1.598  -0.880   0.978  0.00  0.00    -0.011 A 
ATOM      6  C   UNL     1      -2.683  -0.591   0.126  0.00  0.00    +0.162 A 
ATOM      7  H   UNL     1      -0.901   0.534  -2.563  0.00  0.00    +0.066 HD
ATOM      8  H   UNL     1       0.963   0.041  -1.075  0.00  0.00    +0.062 HD
ATOM      9  H   UNL     1      -1.771  -1.282   1.966  0.00  0.00    +0.066 HD
ENDROOT
BRANCH   4  10
ATOM     10  C   UNL     1       0.883  -0.970   1.485  0.00  0.00    +0.046 C 
ATOM     11  H   UNL     1       0.487  -1.335   2.459  0.00  0.00    +0.055 HD
BRANCH  10  12
ATOM     12  C   UNL     1       1.758  -2.082   0.891  0.00  0.00    -0.042 C 
ATOM     13  H   UNL     1       2.271  -1.733  -0.030  0.00  0.00    +0.025 HD
ATOM     14  H   UNL     1       1.135  -2.969   0.646  0.00  0.00    +0.025 HD
ATOM     15  H   UNL     1       2.531  -2.396   1.623  0.00  0.00    +0.025 HD
ENDBRANCH  10  12
BRANCH  10  16
ATOM     16  N   UNL     1       1.686   0.233   1.736  0.00  0.00    -0.306 N 
ATOM     17  C   UNL     1       2.725   0.266   2.724  0.00  0.00    +0.251 C 
ATOM     18  O   UNL     1       2.751  -0.588   3.651  0.00  0.00    -0.272 OA
ATOM     19  H   UNL     1       1.552   1.080   1.138  0.00  0.00    +0.149 HD
BRANCH  17  20
ATOM     20  C   UNL     1       3.781   1.330   2.672  0.00  0.00    +0.165 C 
ATOM     21  H   UNL     1       3.394   2.237   3.181  0.00  0.00    +0.079 HD
ATOM     22  H   UNL     1       4.699   1.005   3.207  0.00  0.00    +0.079 HD
BRANCH  20  23
ATOM     23  O   UNL     1       4.096   1.665   1.319  0.00  0.00    -0.480 OA
BRANCH  23  24
ATOM     24  C   UNL     1       4.627   0.781   0.361  0.00  0.00    +0.151 A 
ATOM     25  C   UNL     1       5.139  -0.476   0.732  0.00  0.00    -0.017 A 
ATOM     26  C   UNL     1       5.615  -1.365  -0.232  0.00  0.00    -0.044 A 
ATOM     27  C   UNL     1       5.599  -1.018  -1.589  0.00  0.00    +0.066 A 
ATOM     28  C   UNL     1       5.104   0.242  -1.964  0.00  0.00    -0.014 A 
ATOM     29  C   UNL     1       4.623   1.153  -1.003  0.00  0.00    +0.168 A 
ATOM     30  H   UNL     1       5.169  -0.784   1.767  0.00  0.00    +0.065 HD
ATOM     31  H   UNL     1       5.995  -2.327   0.089  0.00  0.00    +0.063 HD
ATOM     32  H   UNL     1       5.097   0.520  -3.010  0.00  0.00    +0.065 HD
BRANCH  29  33
ATOM     33  N   UNL     1       4.115   2.436  -1.428  0.00  0.00    +0.060 N 
ATOM     34  O   UNL     1       3.865   2.649  -2.632  0.00  0.00    -0.126 OA
ATOM     35  O   UNL     1       3.946   3.467  -0.532  0.00  0.00    -0.126 OA
ENDBRANCH  29  33
BRANCH  27  36
ATOM     36  C   UNL     1       6.099  -1.968  -2.607  0.00  0.00    +0.387 C 
ATOM     37  O   UNL     1       6.088  -1.663  -3.829  0.00  0.00    -0.241 OA
ATOM     38  O   UNL     1       6.589  -3.213  -2.228  0.00  0.00    -0.241 OA
ENDBRANCH  27  36
ENDBRANCH  23  24
ENDBRANCH  20  23
ENDBRANCH  17  20
ENDBRANCH  10  16
ENDBRANCH   4  10
BRANCH   6  39
ATOM     39  O   UNL     1      -4.020  -0.801   0.509  0.00  0.00    -0.488 OA
BRANCH  39  40
ATOM     40  C   UNL     1      -4.464  -1.197   1.807  0.00  0.00    +0.090 C 
ATOM     41  H   UNL     1      -5.524  -1.518   1.722  0.00  0.00    +0.070 HD
ATOM     42  H   UNL     1      -3.883  -2.071   2.170  0.00  0.00    +0.070 HD
BRANCH  40  43
ATOM     43  C   UNL     1      -4.384  -0.021   2.786  0.00  0.00    -0.021 C 
ATOM     44  H   UNL     1      -5.014   0.813   2.409  0.00  0.00    +0.030 HD
ATOM     45  H   UNL     1      -3.338   0.344   2.864  0.00  0.00    +0.030 HD
BRANCH  43  46
ATOM     46  C   UNL     1      -4.869  -0.426   4.174  0.00  0.00    -0.062 C 
ATOM     47  H   UNL     1      -4.237  -1.244   4.580  0.00  0.00    +0.023 HD
ATOM     48  H   UNL     1      -4.805   0.445   4.859  0.00  0.00    +0.023 HD
ATOM     49  H   UNL     1      -5.926  -0.766   4.130  0.00  0.00    +0.023 HD
ENDBRANCH  43  46
ENDBRANCH  40  43
ENDBRANCH  39  40
ENDBRANCH   6  39
BRANCH   1  50
ATOM     50  O   UNL     1      -3.539   0.193  -1.985  0.00  0.00    -0.488 OA
BRANCH  50  51
ATOM     51  C   UNL     1      -3.449   0.731  -3.303  0.00  0.00    +0.090 C 
ATOM     52  H   UNL     1      -2.872   0.034  -3.948  0.00  0.00    +0.070 HD
ATOM     53  H   UNL     1      -2.930   1.714  -3.277  0.00  0.00    +0.070 HD
BRANCH  51  54
ATOM     54  C   UNL     1      -4.848   0.901  -3.894  0.00  0.00    -0.021 C 
ATOM     55  H   UNL     1      -5.375  -0.078  -3.889  0.00  0.00    +0.030 HD
ATOM     56  H   UNL     1      -4.757   1.240  -4.948  0.00  0.00    +0.030 HD
BRANCH  54  57
ATOM     57  C   UNL     1      -5.672   1.924  -3.114  0.00  0.00    -0.062 C 
ATOM     58  H   UNL     1      -5.165   2.913  -3.119  0.00  0.00    +0.023 HD
ATOM     59  H   UNL     1      -5.815   1.590  -2.065  0.00  0.00    +0.023 HD
ATOM     60  H   UNL     1      -6.669   2.035  -3.589  0.00  0.00    +0.023 HD
ENDBRANCH  54  57
ENDBRANCH  51  54
ENDBRANCH  50  51
ENDBRANCH   1  50
TORSDOF 16
