REMARK  Name = 
REMARK  16 active torsions:
REMARK  status: ('A' for Active; 'I' for Inactive)
REMARK    1  A    between atoms: C_1  and  C_2
REMARK    2  A    between atoms: C_2  and  C_3
REMARK    3  A    between atoms: C_3  and  O_4
REMARK    4  A    between atoms: O_4  and  C_5
REMARK    5  A    between atoms: C_8  and  C_15
REMARK    6  A    between atoms: C_10  and  O_11
REMARK    7  A    between atoms: O_11  and  C_12
REMARK    8  A    between atoms: C_12  and  C_13
REMARK    9  A    between atoms: C_13  and  C_14
REMARK   10  A    between atoms: C_15  and  C_16
REMARK   11  A    between atoms: C_15  and  N_17
REMARK   12  A    between atoms: C_18  and  C_20
REMARK   13  A    between atoms: C_20  and  O_21
REMARK   14  A    between atoms: O_21  and  C_22
REMARK   15  A    between atoms: C_25  and  C_31
REMARK   16  A    between atoms: C_27  and  N_28
REMARK                            x       y       z     vdW  Elec       q    Type
REMARK                         _______ _______ _______ _____ _____    ______ ____
ROOT
ATOM      1  C   UNL     1      -0.747   0.903  -1.283  0.00  0.00    +0.162 A 
ATOM      2  C   UNL     1       0.432   0.521  -1.948  0.00  0.00    -0.016 A 
ATOM      3  C   UNL     1       0.769  -0.827  -2.070  0.00  0.00    -0.053 A 
ATOM      4  C   UNL     1      -0.075  -1.822  -1.550  0.00  0.00    -0.024 A 
ATOM      5  C   UNL     1      -1.244  -1.440  -0.874  0.00  0.00    -0.011 A 
ATOM      6  C   UNL     1      -1.582  -0.079  -0.731  0.00  0.00    +0.162 A 
ATOM      7  H   UNL     1       1.103   1.259  -2.364  0.00  0.00    +0.066 HD
ATOM      8  H   UNL     1       1.694  -1.093  -2.564  0.00  0.00    +0.062 HD
ATOM      9  H   UNL     1      -1.881  -2.208  -0.459  0.00  0.00    +0.066 HD
ENDROOT
BRANCH   4  10
ATOM     10  C   UNL     1       0.299  -3.287  -1.655  0.00  0.00    +0.046 C 
ATOM     11  H   UNL     1      -0.503  -3.918  -1.212  0.00  0.00    +0.055 HD
BRANCH  10  12
ATOM     12  C   UNL     1       0.434  -3.728  -3.116  0.00  0.00    -0.042 C 
ATOM     13  H   UNL     1       1.262  -3.192  -3.625  0.00  0.00    +0.025 HD
ATOM     14  H   UNL     1       0.645  -4.818  -3.159  0.00  0.00    +0.025 HD
ATOM     15  H   UNL     1      -0.513  -3.532  -3.663  0.00  0.00    +0.025 HD
ENDBRANCH  10  12
BRANCH  10  16
ATOM     16  N   UNL     1       1.548  -3.524  -0.930  0.00  0.00    -0.306 N 
ATOM     17  C   UNL     1       1.564  -3.650   0.498  0.00  0.00    +0.251 C 
ATOM     18  O   UNL     1       0.552  -4.084   1.111  0.00  0.00    -0.272 OA
ATOM     19  H   UNL     1       2.452  -3.318  -1.413  0.00  0.00    +0.149 HD
BRANCH  17  20
ATOM     20  C   UNL     1       2.781  -3.242   1.269  0.00  0.00    +0.165 C 
ATOM     21  H   UNL     1       3.606  -3.940   1.020  0.00  0.00    +0.079 HD
ATOM     22  H   UNL     1       2.605  -3.304   2.365  0.00  0.00    +0.079 HD
BRANCH  20  23
ATOM     23  O   UNL     1       3.176  -1.919   0.905  0.00  0.00    -0.480 OA
BRANCH  23  24
ATOM     24  C   UNL     1       2.443  -0.745   1.157  0.00  0.00    +0.151 A 
ATOM     25  C   UNL     1       1.292  -0.756   1.968  0.00  0.00    -0.017 A 
ATOM     26  C   UNL     1       0.595   0.422   2.232  0.00  0.00    -0.044 A 
ATOM     27  C   UNL     1       1.032   1.642   1.703  0.00  0.00    +0.066 A 
ATOM     28  C   UNL     1       2.177   1.661   0.891  0.00  0.00    -0.014 A 
ATOM     29  C   UNL     1       2.882   0.477   0.598  0.00  0.00    +0.168 A 
ATOM     30  H   UNL     1       0.929  -1.671   2.413  0.00  0.00    +0.065 HD
ATOM     31  H   UNL     1      -0.280   0.378   2.868  0.00  0.00    +0.063 HD
ATOM     32  H   UNL     1       2.511   2.598   0.464  0.00  0.00    +0.065 HD
BRANCH  29  33
ATOM     33  N   UNL     1       4.030   0.529  -0.274  0.00  0.00    +0.060 N 
ATOM     34  O   UNL     1       4.582   1.620  -0.527  0.00  0.00    -0.126 OA
ATOM     35  O   UNL     1       4.486  -0.601  -0.913  0.00  0.00    -0.126 OA
ENDBRANCH  29  33
BRANCH  27  36
ATOM     36  C   UNL     1       0.292   2.889   1.997  0.00  0.00    +0.387 C 
ATOM     37  O   UNL     1       0.745   4.005   1.628  0.00  0.00    -0.241 OA
ATOM     38  O   UNL     1      -0.913   2.846   2.689  0.00  0.00    -0.241 OA
ENDBRANCH  27  36
ENDBRANCH  23  24
ENDBRANCH  20  23
ENDBRANCH  17  20
ENDBRANCH  10  16
ENDBRANCH   4  10
BRANCH   6  39
ATOM     39  O   UNL     1      -2.738   0.343  -0.052  0.00  0.00    -0.488 OA
BRANCH  39  40
ATOM     40  C   UNL     1      -3.620  -0.496   0.694  0.00  0.00    +0.090 C 
ATOM     41  H   UNL     1      -3.910  -1.387   0.096  0.00  0.00    +0.070 HD
ATOM     42  H   UNL     1      -4.548   0.078   0.900  0.00  0.00    +0.070 HD
BRANCH  40  43
ATOM     43  C   UNL     1      -2.982  -0.897   2.027  0.00  0.00    -0.021 C 
ATOM     44  H   UNL     1      -2.770   0.019   2.620  0.00  0.00    +0.030 HD
ATOM     45  H   UNL     1      -2.022  -1.426   1.851  0.00  0.00    +0.030 HD
BRANCH  43  46
ATOM     46  C   UNL     1      -3.906  -1.807   2.830  0.00  0.00    -0.062 C 
ATOM     47  H   UNL     1      -4.865  -1.290   3.046  0.00  0.00    +0.023 HD
ATOM     48  H   UNL     1      -3.421  -2.073   3.792  0.00  0.00    +0.023 HD
ATOM     49  H   UNL     1      -4.111  -2.741   2.265  0.00  0.00    +0.023 HD
ENDBRANCH  43  46
ENDBRANCH  40  43
ENDBRANCH  39  40
ENDBRANCH   6  39
BRANCH   1  50
ATOM     50  O   UNL     1      -1.120   2.249  -1.143  0.00  0.00    -0.488 OA
BRANCH  50  51
ATOM     51  C   UNL     1      -0.376   3.352  -1.655  0.00  0.00    +0.090 C 
ATOM     52  H   UNL     1      -0.281   3.256  -2.759  0.00  0.00    +0.070 HD
ATOM     53  H   UNL     1       0.636   3.362  -1.196  0.00  0.00    +0.070 HD
BRANCH  51  54
ATOM     54  C   UNL     1      -1.104   4.651  -1.318  0.00  0.00    -0.021 C 
ATOM     55  H   UNL     1      -1.250   4.720  -0.219  0.00  0.00    +0.030 HD
ATOM     56  H   UNL     1      -2.104   4.649  -1.804  0.00  0.00    +0.030 HD
BRANCH  54  57
ATOM     57  C   UNL     1      -0.317   5.867  -1.796  0.00  0.00    -0.062 C 
ATOM     58  H   UNL     1      -0.874   6.793  -1.542  0.00  0.00    +0.023 HD
ATOM     59  H   UNL     1       0.676   5.902  -1.299  0.00  0.00    +0.023 HD
ATOM     60  H   UNL     1      -0.176   5.827  -2.897  0.00  0.00    +0.023 HD
ENDBRANCH  54  57
ENDBRANCH  51  54
ENDBRANCH  50  51
ENDBRANCH   1  50
TORSDOF 16
