REMARK  Name = 
REMARK  16 active torsions:
REMARK  status: ('A' for Active; 'I' for Inactive)
REMARK    1  A    between atoms: C_1  and  C_2
REMARK    2  A    between atoms: C_2  and  C_3
REMARK    3  A    between atoms: C_3  and  O_4
REMARK    4  A    between atoms: O_4  and  C_5
REMARK    5  A    between atoms: C_8  and  C_15
REMARK    6  A    between atoms: C_10  and  O_11
REMARK    7  A    between atoms: O_11  and  C_12
REMARK    8  A    between atoms: C_12  and  C_13
REMARK    9  A    between atoms: C_13  and  C_14
REMARK   10  A    between atoms: C_15  and  C_16
REMARK   11  A    between atoms: C_15  and  N_17
REMARK   12  A    between atoms: C_18  and  C_20
REMARK   13  A    between atoms: C_20  and  O_21
REMARK   14  A    between atoms: O_21  and  C_22
REMARK   15  A    between atoms: C_25  and  C_31
REMARK   16  A    between atoms: C_27  and  N_28
REMARK                            x       y       z     vdW  Elec       q    Type
REMARK                         _______ _______ _______ _____ _____    ______ ____
ROOT
ATOM      1  C   UNL     1      -3.332   1.242  -0.030  0.00  0.00    +0.162 A 
ATOM      2  C   UNL     1      -3.364   2.231   0.972  0.00  0.00    -0.016 A 
ATOM      3  C   UNL     1      -2.426   2.223   2.004  0.00  0.00    -0.053 A 
ATOM      4  C   UNL     1      -1.443   1.225   2.065  0.00  0.00    -0.024 A 
ATOM      5  C   UNL     1      -1.435   0.214   1.089  0.00  0.00    -0.011 A 
ATOM      6  C   UNL     1      -2.357   0.234   0.025  0.00  0.00    +0.162 A 
ATOM      7  H   UNL     1      -4.107   3.016   0.964  0.00  0.00    +0.066 HD
ATOM      8  H   UNL     1      -2.467   2.997   2.761  0.00  0.00    +0.062 HD
ATOM      9  H   UNL     1      -0.703  -0.577   1.161  0.00  0.00    +0.066 HD
ENDROOT
BRANCH   4  10
ATOM     10  C   UNL     1      -0.441   1.225   3.203  0.00  0.00    +0.046 C 
ATOM     11  H   UNL     1      -0.337   2.255   3.611  0.00  0.00    +0.055 HD
BRANCH  10  12
ATOM     12  C   UNL     1      -0.943   0.325   4.336  0.00  0.00    -0.042 C 
ATOM     13  H   UNL     1      -0.223   0.346   5.182  0.00  0.00    +0.025 HD
ATOM     14  H   UNL     1      -1.050  -0.724   3.983  0.00  0.00    +0.025 HD
ATOM     15  H   UNL     1      -1.927   0.685   4.704  0.00  0.00    +0.025 HD
ENDBRANCH  10  12
BRANCH  10  16
ATOM     16  N   UNL     1       0.880   0.783   2.741  0.00  0.00    -0.306 N 
ATOM     17  C   UNL     1       1.605   1.479   1.716  0.00  0.00    +0.251 C 
ATOM     18  O   UNL     1       1.236   2.627   1.345  0.00  0.00    -0.272 OA
ATOM     19  H   UNL     1       1.296  -0.091   3.137  0.00  0.00    +0.149 HD
BRANCH  17  20
ATOM     20  C   UNL     1       2.820   0.862   1.098  0.00  0.00    +0.165 C 
ATOM     21  H   UNL     1       3.695   1.056   1.754  0.00  0.00    +0.079 HD
ATOM     22  H   UNL     1       2.995   1.315   0.098  0.00  0.00    +0.079 HD
BRANCH  20  23
ATOM     23  O   UNL     1       2.621  -0.543   0.959  0.00  0.00    -0.480 OA
BRANCH  23  24
ATOM     24  C   UNL     1       3.561  -1.442   0.432  0.00  0.00    +0.151 A 
ATOM     25  C   UNL     1       4.768  -0.988  -0.131  0.00  0.00    -0.017 A 
ATOM     26  C   UNL     1       5.683  -1.888  -0.677  0.00  0.00    -0.044 A 
ATOM     27  C   UNL     1       5.417  -3.264  -0.672  0.00  0.00    +0.066 A 
ATOM     28  C   UNL     1       4.218  -3.724  -0.103  0.00  0.00    -0.014 A 
ATOM     29  C   UNL     1       3.285  -2.831   0.457  0.00  0.00    +0.168 A 
ATOM     30  H   UNL     1       5.009   0.065  -0.160  0.00  0.00    +0.065 HD
ATOM     31  H   UNL     1       6.599  -1.503  -1.106  0.00  0.00    +0.063 HD
ATOM     32  H   UNL     1       4.013  -4.787  -0.090  0.00  0.00    +0.065 HD
BRANCH  29  33
ATOM     33  N   UNL     1       2.069  -3.351   1.038  0.00  0.00    +0.060 N 
ATOM     34  O   UNL     1       1.304  -2.623   1.702  0.00  0.00    -0.126 OA
ATOM     35  O   UNL     1       1.740  -4.679   0.886  0.00  0.00    -0.126 OA
ENDBRANCH  29  33
BRANCH  27  36
ATOM     36  C   UNL     1       6.391  -4.213  -1.256  0.00  0.00    +0.387 C 
ATOM     37  O   UNL     1       6.159  -5.451  -1.256  0.00  0.00    -0.241 OA
ATOM     38  O   UNL     1       7.577  -3.750  -1.815  0.00  0.00    -0.241 OA
ENDBRANCH  27  36
ENDBRANCH  23  24
ENDBRANCH  20  23
ENDBRANCH  17  20
ENDBRANCH  10  16
ENDBRANCH   4  10
BRANCH   6  39
ATOM     39  O   UNL     1      -2.341  -0.726  -1.002  0.00  0.00    -0.488 OA
BRANCH  39  40
ATOM     40  C   UNL     1      -1.295  -1.664  -1.254  0.00  0.00    +0.090 C 
ATOM     41  H   UNL     1      -1.661  -2.379  -2.021  0.00  0.00    +0.070 HD
ATOM     42  H   UNL     1      -1.062  -2.250  -0.339  0.00  0.00    +0.070 HD
BRANCH  40  43
ATOM     43  C   UNL     1      -0.046  -0.953  -1.789  0.00  0.00    -0.021 C 
ATOM     44  H   UNL     1       0.420  -0.346  -0.984  0.00  0.00    +0.030 HD
ATOM     45  H   UNL     1      -0.334  -0.270  -2.617  0.00  0.00    +0.030 HD
BRANCH  43  46
ATOM     46  C   UNL     1       0.980  -1.954  -2.311  0.00  0.00    -0.062 C 
ATOM     47  H   UNL     1       1.911  -1.420  -2.598  0.00  0.00    +0.023 HD
ATOM     48  H   UNL     1       1.225  -2.702  -1.529  0.00  0.00    +0.023 HD
ATOM     49  H   UNL     1       0.582  -2.483  -3.203  0.00  0.00    +0.023 HD
ENDBRANCH  43  46
ENDBRANCH  40  43
ENDBRANCH  39  40
ENDBRANCH   6  39
BRANCH   1  50
ATOM     50  O   UNL     1      -4.248   1.219  -1.095  0.00  0.00    -0.488 OA
BRANCH  50  51
ATOM     51  C   UNL     1      -5.223   2.223  -1.378  0.00  0.00    +0.090 C 
ATOM     52  H   UNL     1      -5.947   1.801  -2.108  0.00  0.00    +0.070 HD
ATOM     53  H   UNL     1      -5.794   2.484  -0.462  0.00  0.00    +0.070 HD
BRANCH  51  54
ATOM     54  C   UNL     1      -4.562   3.458  -1.999  0.00  0.00    -0.021 C 
ATOM     55  H   UNL     1      -4.038   3.162  -2.933  0.00  0.00    +0.030 HD
ATOM     56  H   UNL     1      -3.811   3.882  -1.301  0.00  0.00    +0.030 HD
BRANCH  54  57
ATOM     57  C   UNL     1      -5.595   4.532  -2.325  0.00  0.00    -0.062 C 
ATOM     58  H   UNL     1      -6.115   4.859  -1.399  0.00  0.00    +0.023 HD
ATOM     59  H   UNL     1      -5.088   5.410  -2.776  0.00  0.00    +0.023 HD
ATOM     60  H   UNL     1      -6.342   4.142  -3.048  0.00  0.00    +0.023 HD
ENDBRANCH  54  57
ENDBRANCH  51  54
ENDBRANCH  50  51
ENDBRANCH   1  50
TORSDOF 16
