REMARK  Name = 
REMARK  16 active torsions:
REMARK  status: ('A' for Active; 'I' for Inactive)
REMARK    1  A    between atoms: C_1  and  C_2
REMARK    2  A    between atoms: C_2  and  C_3
REMARK    3  A    between atoms: C_3  and  O_4
REMARK    4  A    between atoms: O_4  and  C_5
REMARK    5  A    between atoms: C_8  and  C_15
REMARK    6  A    between atoms: C_10  and  O_11
REMARK    7  A    between atoms: O_11  and  C_12
REMARK    8  A    between atoms: C_12  and  C_13
REMARK    9  A    between atoms: C_13  and  C_14
REMARK   10  A    between atoms: C_15  and  C_16
REMARK   11  A    between atoms: C_15  and  N_17
REMARK   12  A    between atoms: C_18  and  C_20
REMARK   13  A    between atoms: C_20  and  O_21
REMARK   14  A    between atoms: O_21  and  C_22
REMARK   15  A    between atoms: C_25  and  C_31
REMARK   16  A    between atoms: C_27  and  N_28
REMARK                            x       y       z     vdW  Elec       q    Type
REMARK                         _______ _______ _______ _____ _____    ______ ____
ROOT
ATOM      1  C   UNL     1      -3.090   0.866  -0.563  0.00  0.00    +0.162 A 
ATOM      2  C   UNL     1      -2.006   1.452  -1.243  0.00  0.00    -0.016 A 
ATOM      3  C   UNL     1      -0.843   0.718  -1.482  0.00  0.00    -0.053 A 
ATOM      4  C   UNL     1      -0.737  -0.610  -1.041  0.00  0.00    -0.024 A 
ATOM      5  C   UNL     1      -1.822  -1.198  -0.372  0.00  0.00    -0.011 A 
ATOM      6  C   UNL     1      -2.998  -0.463  -0.128  0.00  0.00    +0.162 A 
ATOM      7  H   UNL     1      -2.053   2.474  -1.593  0.00  0.00    +0.066 HD
ATOM      8  H   UNL     1      -0.023   1.188  -2.011  0.00  0.00    +0.062 HD
ATOM      9  H   UNL     1      -1.743  -2.226  -0.043  0.00  0.00    +0.066 HD
ENDROOT
BRANCH   4  10
ATOM     10  C   UNL     1       0.518  -1.414  -1.311  0.00  0.00    +0.046 C 
ATOM     11  H   UNL     1       0.506  -2.357  -0.719  0.00  0.00    +0.055 HD
BRANCH  10  12
ATOM     12  C   UNL     1       0.583  -1.812  -2.789  0.00  0.00    -0.042 C 
ATOM     13  H   UNL     1      -0.311  -2.413  -3.062  0.00  0.00    +0.025 HD
ATOM     14  H   UNL     1       1.489  -2.428  -2.973  0.00  0.00    +0.025 HD
ATOM     15  H   UNL     1       0.625  -0.912  -3.439  0.00  0.00    +0.025 HD
ENDBRANCH  10  12
BRANCH  10  16
ATOM     16  N   UNL     1       1.709  -0.648  -0.930  0.00  0.00    -0.306 N 
ATOM     17  C   UNL     1       2.032  -0.375   0.441  0.00  0.00    +0.251 C 
ATOM     18  O   UNL     1       1.303  -0.818   1.369  0.00  0.00    -0.272 OA
ATOM     19  H   UNL     1       2.351  -0.286  -1.672  0.00  0.00    +0.149 HD
BRANCH  17  20
ATOM     20  C   UNL     1       3.252   0.420   0.774  0.00  0.00    +0.165 C 
ATOM     21  H   UNL     1       3.269   0.651   1.862  0.00  0.00    +0.079 HD
ATOM     22  H   UNL     1       3.230   1.371   0.199  0.00  0.00    +0.079 HD
BRANCH  20  23
ATOM     23  O   UNL     1       4.409  -0.332   0.423  0.00  0.00    -0.480 OA
BRANCH  23  24
ATOM     24  C   UNL     1       5.734   0.112   0.570  0.00  0.00    +0.151 A 
ATOM     25  C   UNL     1       6.023   1.374   1.123  0.00  0.00    -0.017 A 
ATOM     26  C   UNL     1       7.341   1.798   1.281  0.00  0.00    -0.044 A 
ATOM     27  C   UNL     1       8.405   0.974   0.891  0.00  0.00    +0.066 A 
ATOM     28  C   UNL     1       8.125  -0.285   0.336  0.00  0.00    -0.014 A 
ATOM     29  C   UNL     1       6.799  -0.728   0.164  0.00  0.00    +0.168 A 
ATOM     30  H   UNL     1       5.231   2.038   1.441  0.00  0.00    +0.065 HD
ATOM     31  H   UNL     1       7.527   2.774   1.711  0.00  0.00    +0.063 HD
ATOM     32  H   UNL     1       8.943  -0.922   0.026  0.00  0.00    +0.065 HD
BRANCH  29  33
ATOM     33  N   UNL     1       6.558  -2.027  -0.418  0.00  0.00    +0.060 N 
ATOM     34  O   UNL     1       5.417  -2.366  -0.797  0.00  0.00    -0.126 OA
ATOM     35  O   UNL     1       7.599  -2.906  -0.611  0.00  0.00    -0.126 OA
ENDBRANCH  29  33
BRANCH  27  36
ATOM     36  C   UNL     1       9.803   1.431   1.063  0.00  0.00    +0.387 C 
ATOM     37  O   UNL     1      10.765   0.696   0.715  0.00  0.00    -0.241 OA
ATOM     38  O   UNL     1      10.074   2.679   1.612  0.00  0.00    -0.241 OA
ENDBRANCH  27  36
ENDBRANCH  23  24
ENDBRANCH  20  23
ENDBRANCH  17  20
ENDBRANCH  10  16
ENDBRANCH   4  10
BRANCH   6  39
ATOM     39  O   UNL     1      -4.099  -1.018   0.542  0.00  0.00    -0.488 OA
BRANCH  39  40
ATOM     40  C   UNL     1      -4.173  -2.363   1.011  0.00  0.00    +0.090 C 
ATOM     41  H   UNL     1      -3.369  -2.538   1.758  0.00  0.00    +0.070 HD
ATOM     42  H   UNL     1      -4.039  -3.069   0.162  0.00  0.00    +0.070 HD
BRANCH  40  43
ATOM     43  C   UNL     1      -5.526  -2.608   1.677  0.00  0.00    -0.021 C 
ATOM     44  H   UNL     1      -5.664  -1.887   2.511  0.00  0.00    +0.030 HD
ATOM     45  H   UNL     1      -5.540  -3.636   2.100  0.00  0.00    +0.030 HD
BRANCH  43  46
ATOM     46  C   UNL     1      -6.680  -2.464   0.687  0.00  0.00    -0.062 C 
ATOM     47  H   UNL     1      -7.640  -2.676   1.203  0.00  0.00    +0.023 HD
ATOM     48  H   UNL     1      -6.718  -1.431   0.281  0.00  0.00    +0.023 HD
ATOM     49  H   UNL     1      -6.562  -3.183  -0.152  0.00  0.00    +0.023 HD
ENDBRANCH  43  46
ENDBRANCH  40  43
ENDBRANCH  39  40
ENDBRANCH   6  39
BRANCH   1  50
ATOM     50  O   UNL     1      -4.276   1.569  -0.304  0.00  0.00    -0.488 OA
BRANCH  50  51
ATOM     51  C   UNL     1      -4.532   2.909  -0.718  0.00  0.00    +0.090 C 
ATOM     52  H   UNL     1      -3.786   3.589  -0.253  0.00  0.00    +0.070 HD
ATOM     53  H   UNL     1      -4.454   2.987  -1.824  0.00  0.00    +0.070 HD
BRANCH  51  54
ATOM     54  C   UNL     1      -5.930   3.334  -0.269  0.00  0.00    -0.021 C 
ATOM     55  H   UNL     1      -6.011   3.236   0.835  0.00  0.00    +0.030 HD
ATOM     56  H   UNL     1      -6.087   4.402  -0.534  0.00  0.00    +0.030 HD
BRANCH  54  57
ATOM     57  C   UNL     1      -7.019   2.494  -0.933  0.00  0.00    -0.062 C 
ATOM     58  H   UNL     1      -8.017   2.851  -0.602  0.00  0.00    +0.023 HD
ATOM     59  H   UNL     1      -6.914   1.425  -0.647  0.00  0.00    +0.023 HD
ATOM     60  H   UNL     1      -6.958   2.586  -2.038  0.00  0.00    +0.023 HD
ENDBRANCH  54  57
ENDBRANCH  51  54
ENDBRANCH  50  51
ENDBRANCH   1  50
TORSDOF 16
