REMARK  Name = 
REMARK  6 active torsions:
REMARK  status: ('A' for Active; 'I' for Inactive)
REMARK    1  A    between atoms: C_1  and  C_2
REMARK    2  A    between atoms: C_6  and  C_35
REMARK    3  A    between atoms: C_7  and  N_8
REMARK    4  A    between atoms: C_11  and  C_14
REMARK    5  A    between atoms: C_28  and  C_29
REMARK    6  A    between atoms: C_32  and  C_34
REMARK                            x       y       z     vdW  Elec       q    Type
REMARK                         _______ _______ _______ _____ _____    ______ ____
ROOT
ATOM      1  N   UNL     1      -3.921  -0.592   1.265  0.00  0.00    -0.218 N 
ATOM      2  C   UNL     1      -2.653  -1.128   1.685  0.00  0.00    +0.172 A 
ATOM      3  N   UNL     1      -1.480  -0.719   1.157  0.00  0.00    -0.225 NA
ATOM      4  C   UNL     1      -0.426  -1.449   1.609  0.00  0.00    +0.073 A 
ATOM      5  C   UNL     1      -0.757  -2.446   2.524  0.00  0.00    +0.004 A 
ATOM      6  S   UNL     1      -2.428  -2.428   2.731  0.00  0.00    -0.059 S 
ATOM      7  C   UNL     1      -5.129  -0.747   2.034  0.00  0.00    +0.223 C 
ATOM      8  O   UNL     1      -6.239  -0.824   1.442  0.00  0.00    -0.275 OA
ATOM      9  H   UNL     1      -0.067  -3.127   3.004  0.00  0.00    +0.072 HD
ENDROOT
BRANCH   4  10
ATOM     10  C   UNL     1       0.973  -1.183   1.206  0.00  0.00    -0.031 C 
ATOM     11  C   UNL     1       1.359  -0.546   0.074  0.00  0.00    -0.020 C 
ATOM     12  C   UNL     1       0.351  -0.104  -0.969  0.00  0.00    -0.025 C 
ATOM     13  C   UNL     1       1.004   0.143  -2.327  0.00  0.00    -0.045 C 
ATOM     14  C   UNL     1       2.179   1.109  -2.199  0.00  0.00    -0.025 C 
ATOM     15  C   UNL     1       3.216   0.591  -1.221  0.00  0.00    -0.007 A 
ATOM     16  C   UNL     1       2.803  -0.216  -0.135  0.00  0.00    +0.072 A 
ATOM     17  N   UNL     1       3.734  -0.697   0.731  0.00  0.00    -0.247 NA
ATOM     18  C   UNL     1       5.055  -0.420   0.622  0.00  0.00    +0.072 A 
ATOM     19  C   UNL     1       5.946  -0.952   1.562  0.00  0.00    -0.036 A 
ATOM     20  C   UNL     1       7.306  -0.650   1.489  0.00  0.00    -0.060 A 
ATOM     21  C   UNL     1       7.781   0.194   0.485  0.00  0.00    -0.061 A 
ATOM     22  C   UNL     1       6.901   0.730  -0.459  0.00  0.00    -0.052 A 
ATOM     23  C   UNL     1       5.523   0.417  -0.416  0.00  0.00    +0.015 A 
ATOM     24  C   UNL     1       4.588   0.932  -1.350  0.00  0.00    +0.077 A 
ATOM     25  H   UNL     1       1.727  -1.537   1.898  0.00  0.00    +0.064 HD
ATOM     26  H   UNL     1      -0.418  -0.892  -1.122  0.00  0.00    +0.031 HD
ATOM     27  H   UNL     1      -0.149   0.828  -0.626  0.00  0.00    +0.031 HD
ATOM     28  H   UNL     1       1.360  -0.822  -2.752  0.00  0.00    +0.027 HD
ATOM     29  H   UNL     1       0.250   0.568  -3.025  0.00  0.00    +0.027 HD
ATOM     30  H   UNL     1       1.815   2.101  -1.853  0.00  0.00    +0.031 HD
ATOM     31  H   UNL     1       2.615   1.229  -3.213  0.00  0.00    +0.031 HD
ATOM     32  H   UNL     1       5.584  -1.596   2.354  0.00  0.00    +0.064 HD
ATOM     33  H   UNL     1       7.991  -1.061   2.219  0.00  0.00    +0.062 HD
ATOM     34  H   UNL     1       8.835   0.437   0.440  0.00  0.00    +0.062 HD
ATOM     35  H   UNL     1       7.310   1.396  -1.206  0.00  0.00    +0.062 HD
BRANCH  24  36
ATOM     36  C   UNL     1       5.028   1.822  -2.450  0.00  0.00    +0.388 C 
ATOM     37  O   UNL     1       5.909   1.440  -3.265  0.00  0.00    -0.241 OA
ATOM     38  O   UNL     1       4.451   3.077  -2.605  0.00  0.00    -0.241 OA
ENDBRANCH  24  36
ENDBRANCH   4  10
BRANCH   1  44
ATOM     39  C   UNL     1      -4.067   1.534   0.013  0.00  0.00    -0.028 A 
ATOM     40  C   UNL     1      -4.090   2.223  -1.209  0.00  0.00    -0.057 A 
ATOM     41  C   UNL     1      -3.992   1.528  -2.414  0.00  0.00    -0.061 A 
ATOM     42  C   UNL     1      -3.886   0.138  -2.416  0.00  0.00    -0.057 A 
ATOM     43  C   UNL     1      -3.894  -0.578  -1.209  0.00  0.00    -0.028 A 
ATOM     44  C   UNL     1      -3.977   0.123   0.017  0.00  0.00    +0.049 A 
ATOM     45  H   UNL     1      -4.171   3.303  -1.232  0.00  0.00    +0.062 HD
ATOM     46  H   UNL     1      -3.996   2.070  -3.351  0.00  0.00    +0.062 HD
ATOM     47  H   UNL     1      -3.803  -0.382  -3.363  0.00  0.00    +0.062 HD
BRANCH  39  48
ATOM     48  C   UNL     1      -4.152   2.307   1.302  0.00  0.00    -0.038 C 
ATOM     49  H   UNL     1      -5.161   2.178   1.746  0.00  0.00    +0.028 HD
ATOM     50  H   UNL     1      -3.386   1.942   2.019  0.00  0.00    +0.028 HD
ATOM     51  H   UNL     1      -3.973   3.390   1.138  0.00  0.00    +0.028 HD
ENDBRANCH  39  48
BRANCH  43  52
ATOM     52  C   UNL     1      -3.763  -2.077  -1.239  0.00  0.00    -0.038 C 
ATOM     53  H   UNL     1      -4.044  -2.484  -2.234  0.00  0.00    +0.028 HD
ATOM     54  H   UNL     1      -4.431  -2.541  -0.484  0.00  0.00    +0.028 HD
ATOM     55  H   UNL     1      -2.712  -2.362  -1.023  0.00  0.00    +0.028 HD
ENDBRANCH  43  52
ENDBRANCH   1  44
BRANCH   7  56
ATOM     56  C   UNL     1      -5.107  -0.791   3.531  0.00  0.00    +0.013 C 
ATOM     57  H   UNL     1      -6.007  -0.282   3.936  0.00  0.00    +0.032 HD
ATOM     58  H   UNL     1      -5.107  -1.846   3.875  0.00  0.00    +0.032 HD
ATOM     59  H   UNL     1      -4.209  -0.269   3.921  0.00  0.00    +0.032 HD
ENDBRANCH   7  56
TORSDOF 6
