REMARK  Name = 
REMARK  6 active torsions:
REMARK  status: ('A' for Active; 'I' for Inactive)
REMARK    1  A    between atoms: C_1  and  C_2
REMARK    2  A    between atoms: C_6  and  C_35
REMARK    3  A    between atoms: C_7  and  N_8
REMARK    4  A    between atoms: C_11  and  C_14
REMARK    5  A    between atoms: C_28  and  C_29
REMARK    6  A    between atoms: C_32  and  C_34
REMARK                            x       y       z     vdW  Elec       q    Type
REMARK                         _______ _______ _______ _____ _____    ______ ____
ROOT
ATOM      1  N   UNL     1       3.872  -0.082   0.275  0.00  0.00    -0.218 N 
ATOM      2  C   UNL     1       2.622   0.214  -0.377  0.00  0.00    +0.172 A 
ATOM      3  N   UNL     1       1.420   0.140   0.235  0.00  0.00    -0.225 NA
ATOM      4  C   UNL     1       0.404   0.498  -0.594  0.00  0.00    +0.073 A 
ATOM      5  C   UNL     1       0.797   0.910  -1.867  0.00  0.00    +0.004 A 
ATOM      6  S   UNL     1       2.470   0.777  -1.958  0.00  0.00    -0.059 S 
ATOM      7  C   UNL     1       3.946  -0.884   1.473  0.00  0.00    +0.223 C 
ATOM      8  O   UNL     1       4.934  -0.759   2.247  0.00  0.00    -0.275 OA
ATOM      9  H   UNL     1       0.148   1.281  -2.648  0.00  0.00    +0.072 HD
ENDROOT
BRANCH   4  10
ATOM     10  C   UNL     1      -0.985   0.554  -0.111  0.00  0.00    -0.031 C 
ATOM     11  C   UNL     1      -2.012  -0.145  -0.642  0.00  0.00    -0.020 C 
ATOM     12  C   UNL     1      -1.779  -1.163  -1.742  0.00  0.00    -0.025 C 
ATOM     13  C   UNL     1      -3.079  -1.528  -2.455  0.00  0.00    -0.045 C 
ATOM     14  C   UNL     1      -4.137  -1.992  -1.456  0.00  0.00    -0.025 C 
ATOM     15  C   UNL     1      -4.404  -0.940  -0.397  0.00  0.00    -0.007 A 
ATOM     16  C   UNL     1      -3.368  -0.054  -0.020  0.00  0.00    +0.072 A 
ATOM     17  N   UNL     1      -3.614   0.906   0.911  0.00  0.00    -0.247 NA
ATOM     18  C   UNL     1      -4.811   1.041   1.530  0.00  0.00    +0.072 A 
ATOM     19  C   UNL     1      -4.977   2.052   2.484  0.00  0.00    -0.036 A 
ATOM     20  C   UNL     1      -6.190   2.186   3.161  0.00  0.00    -0.060 A 
ATOM     21  C   UNL     1      -7.238   1.305   2.895  0.00  0.00    -0.061 A 
ATOM     22  C   UNL     1      -7.084   0.292   1.944  0.00  0.00    -0.052 A 
ATOM     23  C   UNL     1      -5.871   0.155   1.231  0.00  0.00    +0.015 A 
ATOM     24  C   UNL     1      -5.663  -0.852   0.254  0.00  0.00    +0.077 A 
ATOM     25  H   UNL     1      -1.143   1.153   0.778  0.00  0.00    +0.064 HD
ATOM     26  H   UNL     1      -1.331  -2.078  -1.296  0.00  0.00    +0.031 HD
ATOM     27  H   UNL     1      -1.082  -0.779  -2.511  0.00  0.00    +0.031 HD
ATOM     28  H   UNL     1      -3.458  -0.644  -3.016  0.00  0.00    +0.027 HD
ATOM     29  H   UNL     1      -2.881  -2.341  -3.187  0.00  0.00    +0.027 HD
ATOM     30  H   UNL     1      -3.801  -2.929  -0.961  0.00  0.00    +0.031 HD
ATOM     31  H   UNL     1      -5.058  -2.213  -2.036  0.00  0.00    +0.031 HD
ATOM     32  H   UNL     1      -4.163   2.731   2.708  0.00  0.00    +0.064 HD
ATOM     33  H   UNL     1      -6.314   2.967   3.900  0.00  0.00    +0.062 HD
ATOM     34  H   UNL     1      -8.173   1.403   3.432  0.00  0.00    +0.062 HD
ATOM     35  H   UNL     1      -7.915  -0.380   1.787  0.00  0.00    +0.062 HD
BRANCH  24  36
ATOM     36  C   UNL     1      -6.741  -1.808  -0.090  0.00  0.00    +0.388 C 
ATOM     37  O   UNL     1      -7.860  -1.390  -0.489  0.00  0.00    -0.241 OA
ATOM     38  O   UNL     1      -6.515  -3.176   0.002  0.00  0.00    -0.241 OA
ENDBRANCH  24  36
ENDBRANCH   4  10
BRANCH   1  44
ATOM     39  C   UNL     1       5.434   1.807  -0.048  0.00  0.00    -0.028 A 
ATOM     40  C   UNL     1       6.614   2.321  -0.606  0.00  0.00    -0.057 A 
ATOM     41  C   UNL     1       7.459   1.501  -1.353  0.00  0.00    -0.061 A 
ATOM     42  C   UNL     1       7.130   0.162  -1.566  0.00  0.00    -0.057 A 
ATOM     43  C   UNL     1       5.942  -0.370  -1.042  0.00  0.00    -0.028 A 
ATOM     44  C   UNL     1       5.090   0.454  -0.273  0.00  0.00    +0.049 A 
ATOM     45  H   UNL     1       6.886   3.359  -0.458  0.00  0.00    +0.062 HD
ATOM     46  H   UNL     1       8.372   1.905  -1.771  0.00  0.00    +0.062 HD
ATOM     47  H   UNL     1       7.802  -0.457  -2.147  0.00  0.00    +0.062 HD
BRANCH  39  48
ATOM     48  C   UNL     1       4.533   2.711   0.748  0.00  0.00    -0.038 C 
ATOM     49  H   UNL     1       3.647   2.985   0.138  0.00  0.00    +0.028 HD
ATOM     50  H   UNL     1       4.195   2.200   1.675  0.00  0.00    +0.028 HD
ATOM     51  H   UNL     1       5.058   3.643   1.049  0.00  0.00    +0.028 HD
ENDBRANCH  39  48
BRANCH  43  52
ATOM     52  C   UNL     1       5.604  -1.816  -1.284  0.00  0.00    -0.038 C 
ATOM     53  H   UNL     1       5.756  -2.394  -0.349  0.00  0.00    +0.028 HD
ATOM     54  H   UNL     1       4.546  -1.914  -1.606  0.00  0.00    +0.028 HD
ATOM     55  H   UNL     1       6.243  -2.255  -2.079  0.00  0.00    +0.028 HD
ENDBRANCH  43  52
ENDBRANCH   1  44
BRANCH   7  56
ATOM     56  C   UNL     1       2.881  -1.876   1.826  0.00  0.00    +0.013 C 
ATOM     57  H   UNL     1       2.469  -2.342   0.905  0.00  0.00    +0.032 HD
ATOM     58  H   UNL     1       3.305  -2.683   2.461  0.00  0.00    +0.032 HD
ATOM     59  H   UNL     1       2.068  -1.371   2.388  0.00  0.00    +0.032 HD
ENDBRANCH   7  56
TORSDOF 6
