REMARK  Name = 
REMARK  6 active torsions:
REMARK  status: ('A' for Active; 'I' for Inactive)
REMARK    1  A    between atoms: C_1  and  C_2
REMARK    2  A    between atoms: C_6  and  C_35
REMARK    3  A    between atoms: C_7  and  N_8
REMARK    4  A    between atoms: C_11  and  C_14
REMARK    5  A    between atoms: C_28  and  C_29
REMARK    6  A    between atoms: C_32  and  C_34
REMARK                            x       y       z     vdW  Elec       q    Type
REMARK                         _______ _______ _______ _____ _____    ______ ____
ROOT
ATOM      1  N   UNL     1       3.803   0.572   0.862  0.00  0.00    -0.218 N 
ATOM      2  C   UNL     1       2.680   0.109   0.087  0.00  0.00    +0.172 A 
ATOM      3  N   UNL     1       1.393   0.379   0.396  0.00  0.00    -0.225 NA
ATOM      4  C   UNL     1       0.527  -0.147  -0.511  0.00  0.00    +0.073 A 
ATOM      5  C   UNL     1       1.131  -0.805  -1.585  0.00  0.00    +0.004 A 
ATOM      6  S   UNL     1       2.795  -0.752  -1.356  0.00  0.00    -0.059 S 
ATOM      7  C   UNL     1       3.673   0.985   2.238  0.00  0.00    +0.223 C 
ATOM      8  O   UNL     1       4.520   1.776   2.736  0.00  0.00    -0.275 OA
ATOM      9  H   UNL     1       0.631  -1.236  -2.440  0.00  0.00    +0.072 HD
ENDROOT
BRANCH   4  10
ATOM     10  C   UNL     1      -0.924   0.089  -0.389  0.00  0.00    -0.031 C 
ATOM     11  C   UNL     1      -1.890  -0.831  -0.613  0.00  0.00    -0.020 C 
ATOM     12  C   UNL     1      -1.553  -2.268  -0.952  0.00  0.00    -0.025 C 
ATOM     13  C   UNL     1      -2.650  -3.215  -0.475  0.00  0.00    -0.045 C 
ATOM     14  C   UNL     1      -4.001  -2.824  -1.073  0.00  0.00    -0.025 C 
ATOM     15  C   UNL     1      -4.358  -1.379  -0.774  0.00  0.00    -0.007 A 
ATOM     16  C   UNL     1      -3.330  -0.433  -0.550  0.00  0.00    +0.072 A 
ATOM     17  N   UNL     1      -3.657   0.856  -0.269  0.00  0.00    -0.247 NA
ATOM     18  C   UNL     1      -4.936   1.296  -0.213  0.00  0.00    +0.072 A 
ATOM     19  C   UNL     1      -5.185   2.643   0.078  0.00  0.00    -0.036 A 
ATOM     20  C   UNL     1      -6.494   3.125   0.105  0.00  0.00    -0.060 A 
ATOM     21  C   UNL     1      -7.560   2.267  -0.167  0.00  0.00    -0.061 A 
ATOM     22  C   UNL     1      -7.323   0.920  -0.458  0.00  0.00    -0.052 A 
ATOM     23  C   UNL     1      -6.006   0.408  -0.468  0.00  0.00    +0.015 A 
ATOM     24  C   UNL     1      -5.712  -0.949  -0.756  0.00  0.00    +0.077 A 
ATOM     25  H   UNL     1      -1.200   1.079  -0.046  0.00  0.00    +0.064 HD
ATOM     26  H   UNL     1      -0.608  -2.582  -0.460  0.00  0.00    +0.031 HD
ATOM     27  H   UNL     1      -1.435  -2.367  -2.053  0.00  0.00    +0.031 HD
ATOM     28  H   UNL     1      -2.399  -4.254  -0.781  0.00  0.00    +0.027 HD
ATOM     29  H   UNL     1      -2.711  -3.188   0.636  0.00  0.00    +0.027 HD
ATOM     30  H   UNL     1      -4.760  -3.513  -0.645  0.00  0.00    +0.031 HD
ATOM     31  H   UNL     1      -3.977  -2.970  -2.175  0.00  0.00    +0.031 HD
ATOM     32  H   UNL     1      -4.363   3.319   0.276  0.00  0.00    +0.064 HD
ATOM     33  H   UNL     1      -6.682   4.167   0.328  0.00  0.00    +0.062 HD
ATOM     34  H   UNL     1      -8.573   2.648  -0.159  0.00  0.00    +0.062 HD
ATOM     35  H   UNL     1      -8.177   0.298  -0.685  0.00  0.00    +0.062 HD
BRANCH  24  36
ATOM     36  C   UNL     1      -6.802  -1.913  -1.031  0.00  0.00    +0.388 C 
ATOM     37  O   UNL     1      -6.809  -2.574  -2.103  0.00  0.00    -0.241 OA
ATOM     38  O   UNL     1      -7.814  -2.111  -0.100  0.00  0.00    -0.241 OA
ENDBRANCH  24  36
ENDBRANCH   4  10
BRANCH   1  44
ATOM     39  C   UNL     1       6.061  -0.357   0.485  0.00  0.00    -0.028 A 
ATOM     40  C   UNL     1       7.322  -0.270  -0.123  0.00  0.00    -0.057 A 
ATOM     41  C   UNL     1       7.619   0.784  -0.987  0.00  0.00    -0.061 A 
ATOM     42  C   UNL     1       6.668   1.771  -1.244  0.00  0.00    -0.057 A 
ATOM     43  C   UNL     1       5.408   1.722  -0.627  0.00  0.00    -0.028 A 
ATOM     44  C   UNL     1       5.098   0.647   0.238  0.00  0.00    +0.049 A 
ATOM     45  H   UNL     1       8.077  -1.024   0.064  0.00  0.00    +0.062 HD
ATOM     46  H   UNL     1       8.591   0.837  -1.460  0.00  0.00    +0.062 HD
ATOM     47  H   UNL     1       6.917   2.578  -1.921  0.00  0.00    +0.062 HD
BRANCH  39  48
ATOM     48  C   UNL     1       5.759  -1.503   1.412  0.00  0.00    -0.038 C 
ATOM     49  H   UNL     1       4.768  -1.942   1.169  0.00  0.00    +0.028 HD
ATOM     50  H   UNL     1       6.518  -2.309   1.322  0.00  0.00    +0.028 HD
ATOM     51  H   UNL     1       5.751  -1.141   2.461  0.00  0.00    +0.028 HD
ENDBRANCH  39  48
BRANCH  43  52
ATOM     52  C   UNL     1       4.393   2.792  -0.924  0.00  0.00    -0.038 C 
ATOM     53  H   UNL     1       4.867   3.679  -1.396  0.00  0.00    +0.028 HD
ATOM     54  H   UNL     1       3.623   2.393  -1.615  0.00  0.00    +0.028 HD
ATOM     55  H   UNL     1       3.904   3.130   0.014  0.00  0.00    +0.028 HD
ENDBRANCH  43  52
ENDBRANCH   1  44
BRANCH   7  56
ATOM     56  C   UNL     1       2.558   0.490   3.109  0.00  0.00    +0.013 C 
ATOM     57  H   UNL     1       1.667   1.139   2.981  0.00  0.00    +0.032 HD
ATOM     58  H   UNL     1       2.866   0.515   4.175  0.00  0.00    +0.032 HD
ATOM     59  H   UNL     1       2.302  -0.557   2.847  0.00  0.00    +0.032 HD
ENDBRANCH   7  56
TORSDOF 6
