REMARK  Name = 
REMARK  6 active torsions:
REMARK  status: ('A' for Active; 'I' for Inactive)
REMARK    1  A    between atoms: C_1  and  C_2
REMARK    2  A    between atoms: C_6  and  C_35
REMARK    3  A    between atoms: C_7  and  N_8
REMARK    4  A    between atoms: C_11  and  C_14
REMARK    5  A    between atoms: C_28  and  C_29
REMARK    6  A    between atoms: C_32  and  C_34
REMARK                            x       y       z     vdW  Elec       q    Type
REMARK                         _______ _______ _______ _____ _____    ______ ____
ROOT
ATOM      1  N   UNL     1      -3.671  -0.228  -0.123  0.00  0.00    -0.218 N 
ATOM      2  C   UNL     1      -2.580   0.577   0.364  0.00  0.00    +0.172 A 
ATOM      3  N   UNL     1      -1.281   0.221   0.265  0.00  0.00    -0.225 NA
ATOM      4  C   UNL     1      -0.448   1.179   0.760  0.00  0.00    +0.073 A 
ATOM      5  C   UNL     1      -1.090   2.325   1.226  0.00  0.00    +0.004 A 
ATOM      6  S   UNL     1      -2.746   2.114   1.033  0.00  0.00    -0.059 S 
ATOM      7  C   UNL     1      -3.551  -1.651  -0.325  0.00  0.00    +0.223 C 
ATOM      8  O   UNL     1      -4.301  -2.229  -1.157  0.00  0.00    -0.275 OA
ATOM      9  H   UNL     1      -0.609   3.205   1.632  0.00  0.00    +0.072 HD
ENDROOT
BRANCH   4  10
ATOM     10  C   UNL     1       1.029   1.080   0.725  0.00  0.00    -0.031 C 
ATOM     11  C   UNL     1       1.750  -0.062   0.636  0.00  0.00    -0.020 C 
ATOM     12  C   UNL     1       1.080  -1.420   0.644  0.00  0.00    -0.025 C 
ATOM     13  C   UNL     1       2.049  -2.538   1.021  0.00  0.00    -0.045 C 
ATOM     14  C   UNL     1       3.296  -2.498   0.141  0.00  0.00    -0.025 C 
ATOM     15  C   UNL     1       4.002  -1.162   0.257  0.00  0.00    -0.007 A 
ATOM     16  C   UNL     1       3.236   0.009   0.469  0.00  0.00    +0.072 A 
ATOM     17  N   UNL     1       3.858   1.217   0.504  0.00  0.00    -0.247 NA
ATOM     18  C   UNL     1       5.194   1.365   0.331  0.00  0.00    +0.072 A 
ATOM     19  C   UNL     1       5.757   2.645   0.388  0.00  0.00    -0.036 A 
ATOM     20  C   UNL     1       7.131   2.815   0.213  0.00  0.00    -0.060 A 
ATOM     21  C   UNL     1       7.949   1.708  -0.018  0.00  0.00    -0.061 A 
ATOM     22  C   UNL     1       7.397   0.425  -0.078  0.00  0.00    -0.052 A 
ATOM     23  C   UNL     1       6.007   0.235   0.090  0.00  0.00    +0.015 A 
ATOM     24  C   UNL     1       5.400  -1.044   0.041  0.00  0.00    +0.077 A 
ATOM     25  H   UNL     1       1.551   2.028   0.775  0.00  0.00    +0.064 HD
ATOM     26  H   UNL     1       0.259  -1.440   1.392  0.00  0.00    +0.031 HD
ATOM     27  H   UNL     1       0.662  -1.622  -0.366  0.00  0.00    +0.031 HD
ATOM     28  H   UNL     1       2.344  -2.434   2.089  0.00  0.00    +0.027 HD
ATOM     29  H   UNL     1       1.542  -3.520   0.899  0.00  0.00    +0.027 HD
ATOM     30  H   UNL     1       3.013  -2.667  -0.921  0.00  0.00    +0.031 HD
ATOM     31  H   UNL     1       3.948  -3.335   0.460  0.00  0.00    +0.031 HD
ATOM     32  H   UNL     1       5.130   3.509   0.569  0.00  0.00    +0.064 HD
ATOM     33  H   UNL     1       7.563   3.807   0.259  0.00  0.00    +0.062 HD
ATOM     34  H   UNL     1       9.015   1.844  -0.148  0.00  0.00    +0.062 HD
ATOM     35  H   UNL     1       8.066  -0.407  -0.248  0.00  0.00    +0.062 HD
BRANCH  24  36
ATOM     36  C   UNL     1       6.214  -2.241  -0.253  0.00  0.00    +0.388 C 
ATOM     37  O   UNL     1       6.730  -2.391  -1.392  0.00  0.00    -0.241 OA
ATOM     38  O   UNL     1       6.436  -3.195   0.733  0.00  0.00    -0.241 OA
ENDBRANCH  24  36
ENDBRANCH   4  10
BRANCH   1  44
ATOM     39  C   UNL     1      -6.011   0.319   0.451  0.00  0.00    -0.028 A 
ATOM     40  C   UNL     1      -7.227   0.939   0.125  0.00  0.00    -0.057 A 
ATOM     41  C   UNL     1      -7.354   1.665  -1.060  0.00  0.00    -0.061 A 
ATOM     42  C   UNL     1      -6.277   1.769  -1.939  0.00  0.00    -0.057 A 
ATOM     43  C   UNL     1      -5.059   1.134  -1.650  0.00  0.00    -0.028 A 
ATOM     44  C   UNL     1      -4.920   0.411  -0.443  0.00  0.00    +0.049 A 
ATOM     45  H   UNL     1      -8.077   0.869   0.791  0.00  0.00    +0.062 HD
ATOM     46  H   UNL     1      -8.293   2.149  -1.297  0.00  0.00    +0.062 HD
ATOM     47  H   UNL     1      -6.396   2.341  -2.851  0.00  0.00    +0.062 HD
BRANCH  39  48
ATOM     48  C   UNL     1      -5.893  -0.457   1.734  0.00  0.00    -0.038 C 
ATOM     49  H   UNL     1      -4.952  -0.190   2.260  0.00  0.00    +0.028 HD
ATOM     50  H   UNL     1      -5.891  -1.545   1.512  0.00  0.00    +0.028 HD
ATOM     51  H   UNL     1      -6.738  -0.238   2.421  0.00  0.00    +0.028 HD
ENDBRANCH  39  48
BRANCH  43  52
ATOM     52  C   UNL     1      -3.907   1.266  -2.609  0.00  0.00    -0.038 C 
ATOM     53  H   UNL     1      -3.412   0.283  -2.754  0.00  0.00    +0.028 HD
ATOM     54  H   UNL     1      -4.249   1.622  -3.604  0.00  0.00    +0.028 HD
ATOM     55  H   UNL     1      -3.170   1.991  -2.207  0.00  0.00    +0.028 HD
ENDBRANCH  43  52
ENDBRANCH   1  44
BRANCH   7  56
ATOM     56  C   UNL     1      -2.561  -2.476   0.438  0.00  0.00    +0.013 C 
ATOM     57  H   UNL     1      -2.366  -2.027   1.435  0.00  0.00    +0.032 HD
ATOM     58  H   UNL     1      -1.616  -2.547  -0.137  0.00  0.00    +0.032 HD
ATOM     59  H   UNL     1      -2.961  -3.500   0.594  0.00  0.00    +0.032 HD
ENDBRANCH   7  56
TORSDOF 6
