REMARK  Name = 
REMARK  6 active torsions:
REMARK  status: ('A' for Active; 'I' for Inactive)
REMARK    1  A    between atoms: C_1  and  C_2
REMARK    2  A    between atoms: C_6  and  C_35
REMARK    3  A    between atoms: C_7  and  N_8
REMARK    4  A    between atoms: C_11  and  C_14
REMARK    5  A    between atoms: C_28  and  C_29
REMARK    6  A    between atoms: C_32  and  C_34
REMARK                            x       y       z     vdW  Elec       q    Type
REMARK                         _______ _______ _______ _____ _____    ______ ____
ROOT
ATOM      1  N   UNL     1      -4.132  -0.407   0.903  0.00  0.00    -0.218 N 
ATOM      2  C   UNL     1      -2.826  -0.276   1.492  0.00  0.00    +0.172 A 
ATOM      3  N   UNL     1      -1.684  -0.480   0.799  0.00  0.00    -0.225 NA
ATOM      4  C   UNL     1      -0.582  -0.191   1.540  0.00  0.00    +0.073 A 
ATOM      5  C   UNL     1      -0.838   0.231   2.844  0.00  0.00    +0.004 A 
ATOM      6  S   UNL     1      -2.506   0.280   3.050  0.00  0.00    -0.059 S 
ATOM      7  C   UNL     1      -5.321  -0.610   1.691  0.00  0.00    +0.223 C 
ATOM      8  O   UNL     1      -6.423  -0.148   1.289  0.00  0.00    -0.275 OA
ATOM      9  H   UNL     1      -0.099   0.476   3.594  0.00  0.00    +0.072 HD
ENDROOT
BRANCH   4  10
ATOM     10  C   UNL     1       0.772  -0.400   1.002  0.00  0.00    -0.031 C 
ATOM     11  C   UNL     1       1.686   0.581   0.835  0.00  0.00    -0.020 C 
ATOM     12  C   UNL     1       1.334   2.031   1.101  0.00  0.00    -0.025 C 
ATOM     13  C   UNL     1       2.584   2.898   1.238  0.00  0.00    -0.045 C 
ATOM     14  C   UNL     1       3.492   2.740   0.020  0.00  0.00    -0.025 C 
ATOM     15  C   UNL     1       3.887   1.291  -0.196  0.00  0.00    -0.007 A 
ATOM     16  C   UNL     1       3.005   0.263   0.208  0.00  0.00    +0.072 A 
ATOM     17  N   UNL     1       3.369  -1.036   0.037  0.00  0.00    -0.247 NA
ATOM     18  C   UNL     1       4.539  -1.404  -0.537  0.00  0.00    +0.072 A 
ATOM     19  C   UNL     1       4.833  -2.765  -0.683  0.00  0.00    -0.036 A 
ATOM     20  C   UNL     1       6.015  -3.165  -1.305  0.00  0.00    -0.060 A 
ATOM     21  C   UNL     1       6.905  -2.209  -1.794  0.00  0.00    -0.061 A 
ATOM     22  C   UNL     1       6.623  -0.847  -1.653  0.00  0.00    -0.052 A 
ATOM     23  C   UNL     1       5.441  -0.421  -1.005  0.00  0.00    +0.015 A 
ATOM     24  C   UNL     1       5.109   0.947  -0.833  0.00  0.00    +0.077 A 
ATOM     25  H   UNL     1       0.987  -1.404   0.659  0.00  0.00    +0.064 HD
ATOM     26  H   UNL     1       0.757   2.142   2.040  0.00  0.00    +0.031 HD
ATOM     27  H   UNL     1       0.709   2.410   0.264  0.00  0.00    +0.031 HD
ATOM     28  H   UNL     1       2.283   3.964   1.337  0.00  0.00    +0.027 HD
ATOM     29  H   UNL     1       3.140   2.610   2.158  0.00  0.00    +0.027 HD
ATOM     30  H   UNL     1       4.388   3.372   0.197  0.00  0.00    +0.031 HD
ATOM     31  H   UNL     1       2.972   3.114  -0.888  0.00  0.00    +0.031 HD
ATOM     32  H   UNL     1       4.140  -3.514  -0.320  0.00  0.00    +0.064 HD
ATOM     33  H   UNL     1       6.237  -4.218  -1.418  0.00  0.00    +0.062 HD
ATOM     34  H   UNL     1       7.815  -2.523  -2.289  0.00  0.00    +0.062 HD
ATOM     35  H   UNL     1       7.331  -0.142  -2.067  0.00  0.00    +0.062 HD
BRANCH  24  36
ATOM     36  C   UNL     1       6.018   2.014  -1.313  0.00  0.00    +0.388 C 
ATOM     37  O   UNL     1       7.211   2.061  -0.912  0.00  0.00    -0.241 OA
ATOM     38  O   UNL     1       5.552   2.986  -2.189  0.00  0.00    -0.241 OA
ENDBRANCH  24  36
ENDBRANCH   4  10
BRANCH   1  44
ATOM     39  C   UNL     1      -4.498  -1.466  -1.300  0.00  0.00    -0.028 A 
ATOM     40  C   UNL     1      -4.625  -1.355  -2.693  0.00  0.00    -0.057 A 
ATOM     41  C   UNL     1      -4.482  -0.117  -3.320  0.00  0.00    -0.061 A 
ATOM     42  C   UNL     1      -4.225   1.026  -2.564  0.00  0.00    -0.057 A 
ATOM     43  C   UNL     1      -4.125   0.949  -1.167  0.00  0.00    -0.028 A 
ATOM     44  C   UNL     1      -4.256  -0.307  -0.527  0.00  0.00    +0.049 A 
ATOM     45  H   UNL     1      -4.825  -2.230  -3.299  0.00  0.00    +0.062 HD
ATOM     46  H   UNL     1      -4.568  -0.044  -4.396  0.00  0.00    +0.062 HD
ATOM     47  H   UNL     1      -4.111   1.976  -3.071  0.00  0.00    +0.062 HD
BRANCH  39  48
ATOM     48  C   UNL     1      -4.648  -2.813  -0.647  0.00  0.00    -0.038 C 
ATOM     49  H   UNL     1      -5.643  -2.883  -0.161  0.00  0.00    +0.028 HD
ATOM     50  H   UNL     1      -3.855  -2.962   0.116  0.00  0.00    +0.028 HD
ATOM     51  H   UNL     1      -4.558  -3.635  -1.390  0.00  0.00    +0.028 HD
ENDBRANCH  39  48
BRANCH  43  52
ATOM     52  C   UNL     1      -3.840   2.196  -0.375  0.00  0.00    -0.038 C 
ATOM     53  H   UNL     1      -4.074   3.109  -0.964  0.00  0.00    +0.028 HD
ATOM     54  H   UNL     1      -4.460   2.222   0.545  0.00  0.00    +0.028 HD
ATOM     55  H   UNL     1      -2.766   2.221  -0.095  0.00  0.00    +0.028 HD
ENDBRANCH  43  52
ENDBRANCH   1  44
BRANCH   7  56
ATOM     56  C   UNL     1      -5.292  -1.386   2.971  0.00  0.00    +0.013 C 
ATOM     57  H   UNL     1      -5.210  -0.689   3.830  0.00  0.00    +0.032 HD
ATOM     58  H   UNL     1      -6.227  -1.976   3.076  0.00  0.00    +0.032 HD
ATOM     59  H   UNL     1      -4.435  -2.093   2.977  0.00  0.00    +0.032 HD
ENDBRANCH   7  56
TORSDOF 6
