REMARK  Name = 
REMARK  6 active torsions:
REMARK  status: ('A' for Active; 'I' for Inactive)
REMARK    1  A    between atoms: C_1  and  C_2
REMARK    2  A    between atoms: C_6  and  C_35
REMARK    3  A    between atoms: C_7  and  N_8
REMARK    4  A    between atoms: C_11  and  C_14
REMARK    5  A    between atoms: C_28  and  C_29
REMARK    6  A    between atoms: C_32  and  C_34
REMARK                            x       y       z     vdW  Elec       q    Type
REMARK                         _______ _______ _______ _____ _____    ______ ____
ROOT
ATOM      1  N   UNL     1      -3.978  -1.318  -0.733  0.00  0.00    -0.218 N 
ATOM      2  C   UNL     1      -2.608  -1.395  -1.171  0.00  0.00    +0.172 A 
ATOM      3  N   UNL     1      -1.574  -0.924  -0.438  0.00  0.00    -0.225 NA
ATOM      4  C   UNL     1      -0.386  -1.045  -1.089  0.00  0.00    +0.073 A 
ATOM      5  C   UNL     1      -0.465  -1.643  -2.348  0.00  0.00    +0.004 A 
ATOM      6  S   UNL     1      -2.081  -1.987  -2.657  0.00  0.00    -0.059 S 
ATOM      7  C   UNL     1      -5.027  -2.090  -1.358  0.00  0.00    +0.223 C 
ATOM      8  O   UNL     1      -4.748  -3.139  -1.998  0.00  0.00    -0.275 OA
ATOM      9  H   UNL     1       0.362  -1.878  -3.003  0.00  0.00    +0.072 HD
ENDROOT
BRANCH   4  10
ATOM     10  C   UNL     1       0.875  -0.650  -0.431  0.00  0.00    -0.031 C 
ATOM     11  C   UNL     1       1.888   0.024  -1.021  0.00  0.00    -0.020 C 
ATOM     12  C   UNL     1       1.786   0.518  -2.448  0.00  0.00    -0.025 C 
ATOM     13  C   UNL     1       2.634   1.770  -2.656  0.00  0.00    -0.045 C 
ATOM     14  C   UNL     1       4.091   1.504  -2.281  0.00  0.00    -0.025 C 
ATOM     15  C   UNL     1       4.226   0.986  -0.861  0.00  0.00    -0.007 A 
ATOM     16  C   UNL     1       3.154   0.278  -0.268  0.00  0.00    +0.072 A 
ATOM     17  N   UNL     1       3.277  -0.175   1.008  0.00  0.00    -0.247 NA
ATOM     18  C   UNL     1       4.398  -0.001   1.748  0.00  0.00    +0.072 A 
ATOM     19  C   UNL     1       4.442  -0.504   3.053  0.00  0.00    -0.036 A 
ATOM     20  C   UNL     1       5.600  -0.367   3.820  0.00  0.00    -0.060 A 
ATOM     21  C   UNL     1       6.721   0.264   3.283  0.00  0.00    -0.061 A 
ATOM     22  C   UNL     1       6.689   0.772   1.981  0.00  0.00    -0.052 A 
ATOM     23  C   UNL     1       5.518   0.663   1.197  0.00  0.00    +0.015 A 
ATOM     24  C   UNL     1       5.430   1.162  -0.128  0.00  0.00    +0.077 A 
ATOM     25  H   UNL     1       0.939  -0.897   0.622  0.00  0.00    +0.064 HD
ATOM     26  H   UNL     1       0.738   0.784  -2.704  0.00  0.00    +0.031 HD
ATOM     27  H   UNL     1       2.133  -0.280  -3.139  0.00  0.00    +0.031 HD
ATOM     28  H   UNL     1       2.579   2.079  -3.723  0.00  0.00    +0.027 HD
ATOM     29  H   UNL     1       2.233   2.602  -2.035  0.00  0.00    +0.027 HD
ATOM     30  H   UNL     1       4.641   2.462  -2.403  0.00  0.00    +0.031 HD
ATOM     31  H   UNL     1       4.527   0.759  -2.981  0.00  0.00    +0.031 HD
ATOM     32  H   UNL     1       3.581  -1.009   3.473  0.00  0.00    +0.064 HD
ATOM     33  H   UNL     1       5.631  -0.760   4.828  0.00  0.00    +0.062 HD
ATOM     34  H   UNL     1       7.623   0.356   3.875  0.00  0.00    +0.062 HD
ATOM     35  H   UNL     1       7.588   1.234   1.599  0.00  0.00    +0.062 HD
BRANCH  24  36
ATOM     36  C   UNL     1       6.579   1.860  -0.751  0.00  0.00    +0.388 C 
ATOM     37  O   UNL     1       7.079   2.877  -0.203  0.00  0.00    -0.241 OA
ATOM     38  O   UNL     1       7.095   1.413  -1.961  0.00  0.00    -0.241 OA
ENDBRANCH  24  36
ENDBRANCH   4  10
BRANCH   1  44
ATOM     39  C   UNL     1      -4.482  -0.995   1.666  0.00  0.00    -0.028 A 
ATOM     40  C   UNL     1      -4.806  -0.143   2.732  0.00  0.00    -0.057 A 
ATOM     41  C   UNL     1      -4.907   1.234   2.532  0.00  0.00    -0.061 A 
ATOM     42  C   UNL     1      -4.695   1.776   1.265  0.00  0.00    -0.057 A 
ATOM     43  C   UNL     1      -4.400   0.943   0.175  0.00  0.00    -0.028 A 
ATOM     44  C   UNL     1      -4.294  -0.453   0.374  0.00  0.00    +0.049 A 
ATOM     45  H   UNL     1      -4.972  -0.542   3.725  0.00  0.00    +0.062 HD
ATOM     46  H   UNL     1      -5.145   1.884   3.364  0.00  0.00    +0.062 HD
ATOM     47  H   UNL     1      -4.765   2.849   1.134  0.00  0.00    +0.062 HD
BRANCH  39  48
ATOM     48  C   UNL     1      -4.363  -2.475   1.909  0.00  0.00    -0.038 C 
ATOM     49  H   UNL     1      -5.263  -2.993   1.517  0.00  0.00    +0.028 HD
ATOM     50  H   UNL     1      -3.460  -2.877   1.402  0.00  0.00    +0.028 HD
ATOM     51  H   UNL     1      -4.269  -2.701   2.992  0.00  0.00    +0.028 HD
ENDBRANCH  39  48
BRANCH  43  52
ATOM     52  C   UNL     1      -4.150   1.554  -1.178  0.00  0.00    -0.038 C 
ATOM     53  H   UNL     1      -4.638   0.954  -1.973  0.00  0.00    +0.028 HD
ATOM     54  H   UNL     1      -4.559   2.585  -1.235  0.00  0.00    +0.028 HD
ATOM     55  H   UNL     1      -3.058   1.593  -1.370  0.00  0.00    +0.028 HD
ENDBRANCH  43  52
ENDBRANCH   1  44
BRANCH   7  56
ATOM     56  C   UNL     1      -6.467  -1.699  -1.210  0.00  0.00    +0.013 C 
ATOM     57  H   UNL     1      -6.584  -0.609  -1.382  0.00  0.00    +0.032 HD
ATOM     58  H   UNL     1      -7.093  -2.240  -1.949  0.00  0.00    +0.032 HD
ATOM     59  H   UNL     1      -6.820  -1.948  -0.188  0.00  0.00    +0.032 HD
ENDBRANCH   7  56
TORSDOF 6
