REMARK  Name = 
REMARK  6 active torsions:
REMARK  status: ('A' for Active; 'I' for Inactive)
REMARK    1  A    between atoms: C_1  and  C_2
REMARK    2  A    between atoms: C_6  and  C_35
REMARK    3  A    between atoms: C_7  and  N_8
REMARK    4  A    between atoms: C_11  and  C_14
REMARK    5  A    between atoms: C_28  and  C_29
REMARK    6  A    between atoms: C_32  and  C_34
REMARK                            x       y       z     vdW  Elec       q    Type
REMARK                         _______ _______ _______ _____ _____    ______ ____
ROOT
ATOM      1  N   UNL     1      -3.748   0.835   1.596  0.00  0.00    -0.218 N 
ATOM      2  C   UNL     1      -2.411   0.823   2.130  0.00  0.00    +0.172 A 
ATOM      3  N   UNL     1      -1.337   0.464   1.395  0.00  0.00    -0.225 NA
ATOM      4  C   UNL     1      -0.172   0.586   2.087  0.00  0.00    +0.073 A 
ATOM      5  C   UNL     1      -0.315   1.092   3.378  0.00  0.00    +0.004 A 
ATOM      6  S   UNL     1      -1.952   1.365   3.656  0.00  0.00    -0.059 S 
ATOM      7  C   UNL     1      -4.924   0.798   2.428  0.00  0.00    +0.223 C 
ATOM      8  O   UNL     1      -5.988   1.343   2.027  0.00  0.00    -0.275 OA
ATOM      9  H   UNL     1       0.487   1.287   4.078  0.00  0.00    +0.072 HD
ENDROOT
BRANCH   4  10
ATOM     10  C   UNL     1       1.156   0.294   1.500  0.00  0.00    -0.031 C 
ATOM     11  C   UNL     1       1.389  -0.450   0.393  0.00  0.00    -0.020 C 
ATOM     12  C   UNL     1       0.266  -1.159  -0.339  0.00  0.00    -0.025 C 
ATOM     13  C   UNL     1       0.784  -2.264  -1.257  0.00  0.00    -0.045 C 
ATOM     14  C   UNL     1       1.862  -1.731  -2.197  0.00  0.00    -0.025 C 
ATOM     15  C   UNL     1       3.020  -1.133  -1.422  0.00  0.00    -0.007 A 
ATOM     16  C   UNL     1       2.775  -0.529  -0.167  0.00  0.00    +0.072 A 
ATOM     17  N   UNL     1       3.815  -0.012   0.540  0.00  0.00    -0.247 NA
ATOM     18  C   UNL     1       5.091  -0.022   0.088  0.00  0.00    +0.072 A 
ATOM     19  C   UNL     1       6.102   0.537   0.877  0.00  0.00    -0.036 A 
ATOM     20  C   UNL     1       7.418   0.571   0.414  0.00  0.00    -0.060 A 
ATOM     21  C   UNL     1       7.728   0.055  -0.844  0.00  0.00    -0.061 A 
ATOM     22  C   UNL     1       6.727  -0.507  -1.641  0.00  0.00    -0.052 A 
ATOM     23  C   UNL     1       5.392  -0.571  -1.180  0.00  0.00    +0.015 A 
ATOM     24  C   UNL     1       4.339  -1.132  -1.947  0.00  0.00    +0.077 A 
ATOM     25  H   UNL     1       1.994   0.744   2.019  0.00  0.00    +0.064 HD
ATOM     26  H   UNL     1      -0.304  -0.417  -0.941  0.00  0.00    +0.031 HD
ATOM     27  H   UNL     1      -0.422  -1.642   0.388  0.00  0.00    +0.031 HD
ATOM     28  H   UNL     1      -0.061  -2.669  -1.856  0.00  0.00    +0.027 HD
ATOM     29  H   UNL     1       1.201  -3.094  -0.645  0.00  0.00    +0.027 HD
ATOM     30  H   UNL     1       1.431  -0.954  -2.865  0.00  0.00    +0.031 HD
ATOM     31  H   UNL     1       2.200  -2.584  -2.822  0.00  0.00    +0.031 HD
ATOM     32  H   UNL     1       5.868   0.954   1.849  0.00  0.00    +0.064 HD
ATOM     33  H   UNL     1       8.196   1.007   1.027  0.00  0.00    +0.062 HD
ATOM     34  H   UNL     1       8.747   0.096  -1.206  0.00  0.00    +0.062 HD
ATOM     35  H   UNL     1       7.010  -0.874  -2.618  0.00  0.00    +0.062 HD
BRANCH  24  36
ATOM     36  C   UNL     1       4.602  -1.710  -3.286  0.00  0.00    +0.388 C 
ATOM     37  O   UNL     1       5.444  -2.635  -3.426  0.00  0.00    -0.241 OA
ATOM     38  O   UNL     1       3.901  -1.250  -4.394  0.00  0.00    -0.241 OA
ENDBRANCH  24  36
ENDBRANCH   4  10
BRANCH   1  44
ATOM     39  C   UNL     1      -4.150  -0.349  -0.533  0.00  0.00    -0.028 A 
ATOM     40  C   UNL     1      -4.283  -0.321  -1.930  0.00  0.00    -0.057 A 
ATOM     41  C   UNL     1      -4.156   0.880  -2.628  0.00  0.00    -0.061 A 
ATOM     42  C   UNL     1      -3.902   2.067  -1.942  0.00  0.00    -0.057 A 
ATOM     43  C   UNL     1      -3.785   2.070  -0.543  0.00  0.00    -0.028 A 
ATOM     44  C   UNL     1      -3.909   0.855   0.167  0.00  0.00    +0.049 A 
ATOM     45  H   UNL     1      -4.476  -1.232  -2.483  0.00  0.00    +0.062 HD
ATOM     46  H   UNL     1      -4.251   0.889  -3.706  0.00  0.00    +0.062 HD
ATOM     47  H   UNL     1      -3.796   2.987  -2.504  0.00  0.00    +0.062 HD
BRANCH  39  48
ATOM     48  C   UNL     1      -4.269  -1.656   0.202  0.00  0.00    -0.038 C 
ATOM     49  H   UNL     1      -4.308  -2.517  -0.499  0.00  0.00    +0.028 HD
ATOM     50  H   UNL     1      -3.392  -1.798   0.869  0.00  0.00    +0.028 HD
ATOM     51  H   UNL     1      -5.196  -1.657   0.812  0.00  0.00    +0.028 HD
ENDBRANCH  39  48
BRANCH  43  52
ATOM     52  C   UNL     1      -3.482   3.356   0.176  0.00  0.00    -0.038 C 
ATOM     53  H   UNL     1      -3.645   4.236  -0.481  0.00  0.00    +0.028 HD
ATOM     54  H   UNL     1      -4.143   3.466   1.061  0.00  0.00    +0.028 HD
ATOM     55  H   UNL     1      -2.423   3.353   0.509  0.00  0.00    +0.028 HD
ENDBRANCH  43  52
ENDBRANCH   1  44
BRANCH   7  56
ATOM     56  C   UNL     1      -4.930   0.100   3.752  0.00  0.00    +0.013 C 
ATOM     57  H   UNL     1      -5.925  -0.360   3.932  0.00  0.00    +0.032 HD
ATOM     58  H   UNL     1      -4.169  -0.708   3.767  0.00  0.00    +0.032 HD
ATOM     59  H   UNL     1      -4.721   0.829   4.562  0.00  0.00    +0.032 HD
ENDBRANCH   7  56
TORSDOF 6
