REMARK  Name = 
REMARK  6 active torsions:
REMARK  status: ('A' for Active; 'I' for Inactive)
REMARK    1  A    between atoms: C_1  and  C_2
REMARK    2  A    between atoms: C_6  and  C_35
REMARK    3  A    between atoms: C_7  and  N_8
REMARK    4  A    between atoms: C_11  and  C_14
REMARK    5  A    between atoms: C_28  and  C_29
REMARK    6  A    between atoms: C_32  and  C_34
REMARK                            x       y       z     vdW  Elec       q    Type
REMARK                         _______ _______ _______ _____ _____    ______ ____
ROOT
ATOM      1  N   UNL     1      -3.849  -0.357  -0.349  0.00  0.00    -0.218 N 
ATOM      2  C   UNL     1      -2.643   0.163   0.241  0.00  0.00    +0.172 A 
ATOM      3  N   UNL     1      -1.410  -0.323  -0.022  0.00  0.00    -0.225 NA
ATOM      4  C   UNL     1      -0.447   0.324   0.687  0.00  0.00    +0.073 A 
ATOM      5  C   UNL     1      -0.914   1.303   1.562  0.00  0.00    +0.004 A 
ATOM      6  S   UNL     1      -2.586   1.381   1.404  0.00  0.00    -0.059 S 
ATOM      7  C   UNL     1      -3.842  -1.125  -1.571  0.00  0.00    +0.223 C 
ATOM      8  O   UNL     1      -4.791  -1.918  -1.815  0.00  0.00    -0.275 OA
ATOM      9  H   UNL     1      -0.316   1.889   2.248  0.00  0.00    +0.072 HD
ENDROOT
BRANCH   4  10
ATOM     10  C   UNL     1       0.963  -0.090   0.604  0.00  0.00    -0.031 C 
ATOM     11  C   UNL     1       1.980   0.717   0.227  0.00  0.00    -0.020 C 
ATOM     12  C   UNL     1       1.718   2.127  -0.266  0.00  0.00    -0.025 C 
ATOM     13  C   UNL     1       2.988   2.974  -0.251  0.00  0.00    -0.045 C 
ATOM     14  C   UNL     1       4.108   2.290  -1.034  0.00  0.00    -0.025 C 
ATOM     15  C   UNL     1       4.401   0.904  -0.492  0.00  0.00    -0.007 A 
ATOM     16  C   UNL     1       3.363   0.162   0.118  0.00  0.00    +0.072 A 
ATOM     17  N   UNL     1       3.631  -1.070   0.626  0.00  0.00    -0.247 NA
ATOM     18  C   UNL     1       4.854  -1.647   0.552  0.00  0.00    +0.072 A 
ATOM     19  C   UNL     1       5.043  -2.924   1.094  0.00  0.00    -0.036 A 
ATOM     20  C   UNL     1       6.284  -3.553   0.995  0.00  0.00    -0.060 A 
ATOM     21  C   UNL     1       7.340  -2.913   0.345  0.00  0.00    -0.061 A 
ATOM     22  C   UNL     1       7.164  -1.638  -0.199  0.00  0.00    -0.052 A 
ATOM     23  C   UNL     1       5.920  -0.975  -0.089  0.00  0.00    +0.015 A 
ATOM     24  C   UNL     1       5.689   0.320  -0.620  0.00  0.00    +0.077 A 
ATOM     25  H   UNL     1       1.151  -1.139   0.796  0.00  0.00    +0.064 HD
ATOM     26  H   UNL     1       1.317   2.077  -1.302  0.00  0.00    +0.031 HD
ATOM     27  H   UNL     1       0.973   2.648   0.366  0.00  0.00    +0.031 HD
ATOM     28  H   UNL     1       2.775   3.966  -0.705  0.00  0.00    +0.027 HD
ATOM     29  H   UNL     1       3.315   3.139   0.800  0.00  0.00    +0.027 HD
ATOM     30  H   UNL     1       3.822   2.208  -2.105  0.00  0.00    +0.031 HD
ATOM     31  H   UNL     1       5.004   2.942  -0.959  0.00  0.00    +0.031 HD
ATOM     32  H   UNL     1       4.224  -3.434   1.587  0.00  0.00    +0.064 HD
ATOM     33  H   UNL     1       6.425  -4.541   1.413  0.00  0.00    +0.062 HD
ATOM     34  H   UNL     1       8.298  -3.410   0.258  0.00  0.00    +0.062 HD
ATOM     35  H   UNL     1       8.003  -1.191  -0.712  0.00  0.00    +0.062 HD
BRANCH  24  36
ATOM     36  C   UNL     1       6.772   1.062  -1.306  0.00  0.00    +0.388 C 
ATOM     37  O   UNL     1       7.858   1.296  -0.713  0.00  0.00    -0.241 OA
ATOM     38  O   UNL     1       6.587   1.528  -2.601  0.00  0.00    -0.241 OA
ENDBRANCH  24  36
ENDBRANCH   4  10
BRANCH   1  44
ATOM     39  C   UNL     1      -5.474  -0.888   1.437  0.00  0.00    -0.028 A 
ATOM     40  C   UNL     1      -6.694  -0.632   2.081  0.00  0.00    -0.057 A 
ATOM     41  C   UNL     1      -7.554   0.354   1.598  0.00  0.00    -0.061 A 
ATOM     42  C   UNL     1      -7.203   1.106   0.477  0.00  0.00    -0.057 A 
ATOM     43  C   UNL     1      -5.976   0.888  -0.169  0.00  0.00    -0.028 A 
ATOM     44  C   UNL     1      -5.107  -0.119   0.309  0.00  0.00    +0.049 A 
ATOM     45  H   UNL     1      -6.984  -1.200   2.956  0.00  0.00    +0.062 HD
ATOM     46  H   UNL     1      -8.498   0.537   2.096  0.00  0.00    +0.062 HD
ATOM     47  H   UNL     1      -7.887   1.864   0.117  0.00  0.00    +0.062 HD
BRANCH  39  48
ATOM     48  C   UNL     1      -4.557  -1.951   1.979  0.00  0.00    -0.038 C 
ATOM     49  H   UNL     1      -3.711  -1.474   2.516  0.00  0.00    +0.028 HD
ATOM     50  H   UNL     1      -4.159  -2.576   1.152  0.00  0.00    +0.028 HD
ATOM     51  H   UNL     1      -5.090  -2.624   2.684  0.00  0.00    +0.028 HD
ENDBRANCH  39  48
BRANCH  43  52
ATOM     52  C   UNL     1      -5.614   1.710  -1.375  0.00  0.00    -0.038 C 
ATOM     53  H   UNL     1      -6.280   2.592  -1.481  0.00  0.00    +0.028 HD
ATOM     54  H   UNL     1      -5.704   1.087  -2.290  0.00  0.00    +0.028 HD
ATOM     55  H   UNL     1      -4.571   2.081  -1.288  0.00  0.00    +0.028 HD
ENDBRANCH  43  52
ENDBRANCH   1  44
BRANCH   7  56
ATOM     56  C   UNL     1      -2.734  -1.004  -2.573  0.00  0.00    +0.013 C 
ATOM     57  H   UNL     1      -2.359   0.040  -2.605  0.00  0.00    +0.032 HD
ATOM     58  H   UNL     1      -1.908  -1.694  -2.304  0.00  0.00    +0.032 HD
ATOM     59  H   UNL     1      -3.105  -1.270  -3.585  0.00  0.00    +0.032 HD
ENDBRANCH   7  56
TORSDOF 6
