REMARK  Name = 
REMARK  6 active torsions:
REMARK  status: ('A' for Active; 'I' for Inactive)
REMARK    1  A    between atoms: C_1  and  C_2
REMARK    2  A    between atoms: C_6  and  C_35
REMARK    3  A    between atoms: C_7  and  N_8
REMARK    4  A    between atoms: C_11  and  C_14
REMARK    5  A    between atoms: C_28  and  C_29
REMARK    6  A    between atoms: C_32  and  C_34
REMARK                            x       y       z     vdW  Elec       q    Type
REMARK                         _______ _______ _______ _____ _____    ______ ____
ROOT
ATOM      1  N   UNL     1      -3.625  -0.592   0.212  0.00  0.00    -0.218 N 
ATOM      2  C   UNL     1      -2.621   0.220  -0.427  0.00  0.00    +0.172 A 
ATOM      3  N   UNL     1      -1.300   0.136  -0.152  0.00  0.00    -0.225 NA
ATOM      4  C   UNL     1      -0.562   0.979  -0.928  0.00  0.00    +0.073 A 
ATOM      5  C   UNL     1      -1.299   1.716  -1.853  0.00  0.00    +0.004 A 
ATOM      6  S   UNL     1      -2.921   1.315  -1.671  0.00  0.00    -0.059 S 
ATOM      7  C   UNL     1      -3.413  -1.214   1.496  0.00  0.00    +0.223 C 
ATOM      8  O   UNL     1      -4.063  -2.250   1.802  0.00  0.00    -0.275 OA
ATOM      9  H   UNL     1      -0.899   2.418  -2.573  0.00  0.00    +0.072 HD
ENDROOT
BRANCH   4  10
ATOM     10  C   UNL     1       0.917   1.052  -0.882  0.00  0.00    -0.031 C 
ATOM     11  C   UNL     1       1.702   0.681   0.157  0.00  0.00    -0.020 C 
ATOM     12  C   UNL     1       1.107   0.203   1.464  0.00  0.00    -0.025 C 
ATOM     13  C   UNL     1       2.103   0.308   2.617  0.00  0.00    -0.045 C 
ATOM     14  C   UNL     1       3.409  -0.406   2.275  0.00  0.00    -0.025 C 
ATOM     15  C   UNL     1       4.028   0.152   1.008  0.00  0.00    -0.007 A 
ATOM     16  C   UNL     1       3.190   0.682   0.000  0.00  0.00    +0.072 A 
ATOM     17  N   UNL     1       3.746   1.200  -1.127  0.00  0.00    -0.247 NA
ATOM     18  C   UNL     1       5.081   1.213  -1.351  0.00  0.00    +0.072 A 
ATOM     19  C   UNL     1       5.570   1.761  -2.543  0.00  0.00    -0.036 A 
ATOM     20  C   UNL     1       6.939   1.752  -2.811  0.00  0.00    -0.060 A 
ATOM     21  C   UNL     1       7.825   1.186  -1.894  0.00  0.00    -0.061 A 
ATOM     22  C   UNL     1       7.349   0.636  -0.700  0.00  0.00    -0.052 A 
ATOM     23  C   UNL     1       5.968   0.657  -0.401  0.00  0.00    +0.015 A 
ATOM     24  C   UNL     1       5.432   0.116   0.796  0.00  0.00    +0.077 A 
ATOM     25  H   UNL     1       1.382   1.441  -1.779  0.00  0.00    +0.064 HD
ATOM     26  H   UNL     1       0.230   0.826   1.740  0.00  0.00    +0.031 HD
ATOM     27  H   UNL     1       0.785  -0.855   1.351  0.00  0.00    +0.031 HD
ATOM     28  H   UNL     1       1.660  -0.149   3.528  0.00  0.00    +0.027 HD
ATOM     29  H   UNL     1       2.311   1.379   2.836  0.00  0.00    +0.027 HD
ATOM     30  H   UNL     1       3.220  -1.493   2.140  0.00  0.00    +0.031 HD
ATOM     31  H   UNL     1       4.090  -0.273   3.142  0.00  0.00    +0.031 HD
ATOM     32  H   UNL     1       4.887   2.189  -3.267  0.00  0.00    +0.064 HD
ATOM     33  H   UNL     1       7.313   2.174  -3.735  0.00  0.00    +0.062 HD
ATOM     34  H   UNL     1       8.886   1.168  -2.112  0.00  0.00    +0.062 HD
ATOM     35  H   UNL     1       8.070   0.190  -0.031  0.00  0.00    +0.062 HD
BRANCH  24  36
ATOM     36  C   UNL     1       6.319  -0.486   1.818  0.00  0.00    +0.388 C 
ATOM     37  O   UNL     1       7.256   0.186   2.324  0.00  0.00    -0.241 OA
ATOM     38  O   UNL     1       6.106  -1.792   2.245  0.00  0.00    -0.241 OA
ENDBRANCH  24  36
ENDBRANCH   4  10
BRANCH   1  44
ATOM     39  C   UNL     1      -6.029  -0.094  -0.067  0.00  0.00    -0.028 A 
ATOM     40  C   UNL     1      -7.246  -0.322  -0.727  0.00  0.00    -0.057 A 
ATOM     41  C   UNL     1      -7.317  -1.229  -1.784  0.00  0.00    -0.061 A 
ATOM     42  C   UNL     1      -6.180  -1.930  -2.186  0.00  0.00    -0.057 A 
ATOM     43  C   UNL     1      -4.957  -1.741  -1.525  0.00  0.00    -0.028 A 
ATOM     44  C   UNL     1      -4.877  -0.811  -0.462  0.00  0.00    +0.049 A 
ATOM     45  H   UNL     1      -8.142   0.208  -0.429  0.00  0.00    +0.062 HD
ATOM     46  H   UNL     1      -8.258  -1.390  -2.294  0.00  0.00    +0.062 HD
ATOM     47  H   UNL     1      -6.257  -2.626  -3.013  0.00  0.00    +0.062 HD
BRANCH  39  48
ATOM     48  C   UNL     1      -5.972   0.890   1.070  0.00  0.00    -0.038 C 
ATOM     49  H   UNL     1      -6.880   1.529   1.099  0.00  0.00    +0.028 HD
ATOM     50  H   UNL     1      -5.091   1.557   0.956  0.00  0.00    +0.028 HD
ATOM     51  H   UNL     1      -5.893   0.342   2.032  0.00  0.00    +0.028 HD
ENDBRANCH  39  48
BRANCH  43  52
ATOM     52  C   UNL     1      -3.742  -2.502  -1.980  0.00  0.00    -0.038 C 
ATOM     53  H   UNL     1      -4.021  -3.364  -2.622  0.00  0.00    +0.028 HD
ATOM     54  H   UNL     1      -3.078  -1.828  -2.561  0.00  0.00    +0.028 HD
ATOM     55  H   UNL     1      -3.185  -2.898  -1.105  0.00  0.00    +0.028 HD
ENDBRANCH  43  52
ENDBRANCH   1  44
BRANCH   7  56
ATOM     56  C   UNL     1      -2.445  -0.657   2.493  0.00  0.00    +0.013 C 
ATOM     57  H   UNL     1      -1.454  -1.136   2.355  0.00  0.00    +0.032 HD
ATOM     58  H   UNL     1      -2.354   0.443   2.376  0.00  0.00    +0.032 HD
ATOM     59  H   UNL     1      -2.800  -0.866   3.524  0.00  0.00    +0.032 HD
ENDBRANCH   7  56
TORSDOF 6
