REMARK  Name = 
REMARK  6 active torsions:
REMARK  status: ('A' for Active; 'I' for Inactive)
REMARK    1  A    between atoms: C_1  and  C_2
REMARK    2  A    between atoms: C_6  and  C_35
REMARK    3  A    between atoms: C_7  and  N_8
REMARK    4  A    between atoms: C_11  and  C_14
REMARK    5  A    between atoms: C_28  and  C_29
REMARK    6  A    between atoms: C_32  and  C_34
REMARK                            x       y       z     vdW  Elec       q    Type
REMARK                         _______ _______ _______ _____ _____    ______ ____
ROOT
ATOM      1  N   UNL     1      -3.547  -0.531  -0.836  0.00  0.00    -0.218 N 
ATOM      2  C   UNL     1      -2.539  -0.788   0.160  0.00  0.00    +0.172 A 
ATOM      3  N   UNL     1      -1.236  -0.466   0.008  0.00  0.00    -0.225 NA
ATOM      4  C   UNL     1      -0.503  -0.762   1.117  0.00  0.00    +0.073 A 
ATOM      5  C   UNL     1      -1.225  -1.344   2.156  0.00  0.00    +0.004 A 
ATOM      6  S   UNL     1      -2.833  -1.456   1.678  0.00  0.00    -0.059 S 
ATOM      7  C   UNL     1      -3.222  -0.340  -2.229  0.00  0.00    +0.223 C 
ATOM      8  O   UNL     1      -4.008   0.312  -2.970  0.00  0.00    -0.275 OA
ATOM      9  H   UNL     1      -0.826  -1.664   3.109  0.00  0.00    +0.072 HD
ENDROOT
BRANCH   4  10
ATOM     10  C   UNL     1       0.961  -0.561   1.202  0.00  0.00    -0.031 C 
ATOM     11  C   UNL     1       1.683   0.323   0.474  0.00  0.00    -0.020 C 
ATOM     12  C   UNL     1       1.017   1.292  -0.481  0.00  0.00    -0.025 C 
ATOM     13  C   UNL     1       1.910   2.492  -0.787  0.00  0.00    -0.045 C 
ATOM     14  C   UNL     1       3.279   2.038  -1.288  0.00  0.00    -0.025 C 
ATOM     15  C   UNL     1       3.962   1.128  -0.285  0.00  0.00    -0.007 A 
ATOM     16  C   UNL     1       3.176   0.315   0.565  0.00  0.00    +0.072 A 
ATOM     17  N   UNL     1       3.789  -0.485   1.477  0.00  0.00    -0.247 NA
ATOM     18  C   UNL     1       5.135  -0.565   1.602  0.00  0.00    +0.072 A 
ATOM     19  C   UNL     1       5.684  -1.419   2.565  0.00  0.00    -0.036 A 
ATOM     20  C   UNL     1       7.069  -1.544   2.685  0.00  0.00    -0.060 A 
ATOM     21  C   UNL     1       7.911  -0.825   1.837  0.00  0.00    -0.061 A 
ATOM     22  C   UNL     1       7.373   0.032   0.872  0.00  0.00    -0.052 A 
ATOM     23  C   UNL     1       5.974   0.189   0.750  0.00  0.00    +0.015 A 
ATOM     24  C   UNL     1       5.378   1.045  -0.210  0.00  0.00    +0.077 A 
ATOM     25  H   UNL     1       1.469  -1.193   1.919  0.00  0.00    +0.064 HD
ATOM     26  H   UNL     1       0.774   0.763  -1.427  0.00  0.00    +0.031 HD
ATOM     27  H   UNL     1       0.080   1.692  -0.037  0.00  0.00    +0.031 HD
ATOM     28  H   UNL     1       2.035   3.110   0.131  0.00  0.00    +0.027 HD
ATOM     29  H   UNL     1       1.425   3.124  -1.562  0.00  0.00    +0.027 HD
ATOM     30  H   UNL     1       3.167   1.498  -2.253  0.00  0.00    +0.031 HD
ATOM     31  H   UNL     1       3.881   2.954  -1.466  0.00  0.00    +0.031 HD
ATOM     32  H   UNL     1       5.038  -1.994   3.218  0.00  0.00    +0.064 HD
ATOM     33  H   UNL     1       7.489  -2.208   3.430  0.00  0.00    +0.062 HD
ATOM     34  H   UNL     1       8.984  -0.935   1.924  0.00  0.00    +0.062 HD
ATOM     35  H   UNL     1       8.063   0.552   0.223  0.00  0.00    +0.062 HD
BRANCH  24  36
ATOM     36  C   UNL     1       6.220   1.849  -1.127  0.00  0.00    +0.388 C 
ATOM     37  O   UNL     1       6.073   1.749  -2.373  0.00  0.00    -0.241 OA
ATOM     38  O   UNL     1       7.162   2.734  -0.618  0.00  0.00    -0.241 OA
ENDBRANCH  24  36
ENDBRANCH   4  10
BRANCH   1  44
ATOM     39  C   UNL     1      -5.385   0.753   0.204  0.00  0.00    -0.028 A 
ATOM     40  C   UNL     1      -6.723   0.835   0.618  0.00  0.00    -0.057 A 
ATOM     41  C   UNL     1      -7.601  -0.225   0.386  0.00  0.00    -0.061 A 
ATOM     42  C   UNL     1      -7.151  -1.383  -0.248  0.00  0.00    -0.057 A 
ATOM     43  C   UNL     1      -5.811  -1.501  -0.646  0.00  0.00    -0.028 A 
ATOM     44  C   UNL     1      -4.921  -0.425  -0.425  0.00  0.00    +0.049 A 
ATOM     45  H   UNL     1      -7.092   1.723   1.116  0.00  0.00    +0.062 HD
ATOM     46  H   UNL     1      -8.634  -0.148   0.700  0.00  0.00    +0.062 HD
ATOM     47  H   UNL     1      -7.850  -2.192  -0.420  0.00  0.00    +0.062 HD
BRANCH  39  48
ATOM     48  C   UNL     1      -4.454   1.905   0.471  0.00  0.00    -0.038 C 
ATOM     49  H   UNL     1      -5.017   2.832   0.712  0.00  0.00    +0.028 HD
ATOM     50  H   UNL     1      -3.794   1.658   1.328  0.00  0.00    +0.028 HD
ATOM     51  H   UNL     1      -3.830   2.112  -0.424  0.00  0.00    +0.028 HD
ENDBRANCH  39  48
BRANCH  43  52
ATOM     52  C   UNL     1      -5.345  -2.760  -1.326  0.00  0.00    -0.038 C 
ATOM     53  H   UNL     1      -5.198  -2.564  -2.409  0.00  0.00    +0.028 HD
ATOM     54  H   UNL     1      -4.386  -3.103  -0.883  0.00  0.00    +0.028 HD
ATOM     55  H   UNL     1      -6.084  -3.580  -1.212  0.00  0.00    +0.028 HD
ENDBRANCH  43  52
ENDBRANCH   1  44
BRANCH   7  56
ATOM     56  C   UNL     1      -1.972  -0.904  -2.833  0.00  0.00    +0.013 C 
ATOM     57  H   UNL     1      -1.705  -1.863  -2.341  0.00  0.00    +0.032 HD
ATOM     58  H   UNL     1      -2.128  -1.102  -3.914  0.00  0.00    +0.032 HD
ATOM     59  H   UNL     1      -1.142  -0.178  -2.719  0.00  0.00    +0.032 HD
ENDBRANCH   7  56
TORSDOF 6
