REMARK  Name = 
REMARK  11 active torsions:
REMARK  status: ('A' for Active; 'I' for Inactive)
REMARK    1  A    between atoms: C_1  and  C_2
REMARK    2  A    between atoms: C_2  and  C_3
REMARK    3  A    between atoms: C_2  and  C_4
REMARK    4  A    between atoms: C_2  and  C_5
REMARK    5  A    between atoms: C_8  and  O_11
REMARK    6  A    between atoms: O_11  and  C_12
REMARK    7  A    between atoms: C_12  and  C_13
REMARK    8  A    between atoms: C_13  and  N_14
REMARK    9  A    between atoms: C_16  and  C_23
REMARK   10  A    between atoms: N_29  and  C_32
REMARK   11  A    between atoms: C_32  and  C_33
REMARK                            x       y       z     vdW  Elec       q    Type
REMARK                         _______ _______ _______ _____ _____    ______ ____
ROOT
ATOM      1  N   UNL     1       1.133  -1.133  -1.509  0.00  0.00    -0.343 N 
ATOM      2  C   UNL     1       2.106  -0.893  -0.598  0.00  0.00    +0.013 A 
ATOM      3  C   UNL     1       2.299  -2.011   0.212  0.00  0.00    +0.001 A 
ATOM      4  C   UNL     1       1.361  -2.937  -0.204  0.00  0.00    +0.007 A 
ATOM      5  C   UNL     1       0.675  -2.378  -1.255  0.00  0.00    +0.050 A 
ATOM      6  C   UNL     1      -0.370  -3.062  -1.886  0.00  0.00    -0.038 A 
ATOM      7  C   UNL     1      -0.697  -4.346  -1.416  0.00  0.00    -0.060 A 
ATOM      8  C   UNL     1       0.011  -4.916  -0.336  0.00  0.00    -0.061 A 
ATOM      9  C   UNL     1       1.054  -4.206   0.285  0.00  0.00    -0.052 A 
ATOM     10  H   UNL     1       2.615   0.057  -0.494  0.00  0.00    +0.082 HD
ATOM     11  H   UNL     1      -0.922  -2.624  -2.706  0.00  0.00    +0.064 HD
ATOM     12  H   UNL     1      -1.502  -4.899  -1.883  0.00  0.00    +0.062 HD
ATOM     13  H   UNL     1      -0.253  -5.904   0.018  0.00  0.00    +0.062 HD
ATOM     14  H   UNL     1       1.597  -4.636   1.117  0.00  0.00    +0.062 HD
ENDROOT
BRANCH   3  15
ATOM     15  C   UNL     1       3.162  -2.110   1.405  0.00  0.00    -0.035 C 
ATOM     16  C   UNL     1       4.401  -1.583   1.510  0.00  0.00    +0.102 C 
ATOM     17  C   UNL     1       5.071  -1.498   2.824  0.00  0.00    +0.276 C 
ATOM     18  O   UNL     1       4.593  -2.076   3.836  0.00  0.00    -0.268 OA
ATOM     19  N   UNL     1       6.263  -0.718   2.964  0.00  0.00    -0.123 NA
ATOM     20  C   UNL     1       6.844  -0.114   1.971  0.00  0.00    +0.336 C 
ATOM     21  N   UNL     1       6.336  -0.236   0.623  0.00  0.00    -0.213 N 
ATOM     22  C   UNL     1       5.183  -1.061   0.368  0.00  0.00    +0.260 C 
ATOM     23  O   UNL     1       4.899  -1.394  -0.815  0.00  0.00    -0.269 OA
ATOM     24  O   UNL     1       7.977   0.651   2.225  0.00  0.00    -0.250 OA
ATOM     25  H   UNL     1       2.715  -2.586   2.270  0.00  0.00    +0.063 HD
BRANCH  21  26
ATOM     26  C   UNL     1       6.920   0.560  -0.464  0.00  0.00    +0.082 C 
ATOM     27  H   UNL     1       6.923  -0.019  -1.413  0.00  0.00    +0.055 HD
ATOM     28  H   UNL     1       7.980   0.811  -0.250  0.00  0.00    +0.055 HD
BRANCH  26  29
ATOM     29  C   UNL     1       6.137   1.822  -0.643  0.00  0.00    +0.123 A 
ATOM     30  C   UNL     1       5.020   1.973  -1.440  0.00  0.00    -0.019 A 
ATOM     31  C   UNL     1       4.612   3.276  -1.260  0.00  0.00    -0.024 A 
ATOM     32  C   UNL     1       5.500   3.837  -0.364  0.00  0.00    +0.092 A 
ATOM     33  O   UNL     1       6.396   2.943  -0.012  0.00  0.00    -0.466 OA
ATOM     34  H   UNL     1       4.554   1.225  -2.068  0.00  0.00    +0.065 HD
ATOM     35  H   UNL     1       3.763   3.761  -1.724  0.00  0.00    +0.065 HD
ATOM     36  H   UNL     1       5.474   4.854   0.003  0.00  0.00    +0.103 HD
ENDBRANCH  26  29
ENDBRANCH  21  26
ENDBRANCH   3  15
BRANCH   1  37
ATOM     37  C   UNL     1       0.609  -0.158  -2.467  0.00  0.00    +0.057 C 
ATOM     38  H   UNL     1       0.224  -0.672  -3.373  0.00  0.00    +0.053 HD
ATOM     39  H   UNL     1       1.429   0.518  -2.795  0.00  0.00    +0.053 HD
BRANCH  37  40
ATOM     40  C   UNL     1      -0.499   0.677  -1.829  0.00  0.00    +0.107 C 
ATOM     41  H   UNL     1      -0.854   1.431  -2.565  0.00  0.00    +0.071 HD
ATOM     42  H   UNL     1      -0.096   1.200  -0.934  0.00  0.00    +0.071 HD
BRANCH  40  43
ATOM     43  O   UNL     1      -1.581  -0.169  -1.451  0.00  0.00    -0.490 OA
BRANCH  43  47
ATOM     44  C   UNL     1      -5.129   1.049   0.523  0.00  0.00    -0.042 A 
ATOM     45  C   UNL     1      -4.145   1.999   0.168  0.00  0.00    -0.055 A 
ATOM     46  C   UNL     1      -2.970   1.615  -0.483  0.00  0.00    -0.020 A 
ATOM     47  C   UNL     1      -2.744   0.267  -0.801  0.00  0.00    +0.121 A 
ATOM     48  C   UNL     1      -3.707  -0.683  -0.458  0.00  0.00    -0.020 A 
ATOM     49  C   UNL     1      -4.883  -0.305   0.195  0.00  0.00    -0.055 A 
ATOM     50  H   UNL     1      -4.280   3.047   0.394  0.00  0.00    +0.062 HD
ATOM     51  H   UNL     1      -2.246   2.377  -0.737  0.00  0.00    +0.065 HD
ATOM     52  H   UNL     1      -3.541  -1.726  -0.698  0.00  0.00    +0.065 HD
ATOM     53  H   UNL     1      -5.586  -1.089   0.432  0.00  0.00    +0.062 HD
BRANCH  44  54
ATOM     54  C   UNL     1      -6.412   1.514   1.243  0.00  0.00    -0.013 C 
BRANCH  54  55
ATOM     55  C   UNL     1      -6.037   2.189   2.580  0.00  0.00    -0.056 C 
ATOM     56  H   UNL     1      -5.456   1.488   3.217  0.00  0.00    +0.024 HD
ATOM     57  H   UNL     1      -6.949   2.494   3.138  0.00  0.00    +0.024 HD
ATOM     58  H   UNL     1      -5.425   3.101   2.419  0.00  0.00    +0.024 HD
ENDBRANCH  54  55
BRANCH  54  59
ATOM     59  C   UNL     1      -7.165   2.525   0.352  0.00  0.00    -0.056 C 
ATOM     60  H   UNL     1      -7.406   2.067  -0.632  0.00  0.00    +0.024 HD
ATOM     61  H   UNL     1      -8.117   2.842   0.832  0.00  0.00    +0.024 HD
ATOM     62  H   UNL     1      -6.563   3.440   0.173  0.00  0.00    +0.024 HD
ENDBRANCH  54  59
BRANCH  54  63
ATOM     63  C   UNL     1      -7.385   0.352   1.561  0.00  0.00    -0.056 C 
ATOM     64  H   UNL     1      -7.718  -0.152   0.628  0.00  0.00    +0.024 HD
ATOM     65  H   UNL     1      -6.905  -0.394   2.231  0.00  0.00    +0.024 HD
ATOM     66  H   UNL     1      -8.294   0.729   2.078  0.00  0.00    +0.024 HD
ENDBRANCH  54  63
ENDBRANCH  44  54
ENDBRANCH  43  47
ENDBRANCH  40  43
ENDBRANCH  37  40
ENDBRANCH   1  37
TORSDOF 11
