REMARK  Name = 
REMARK  11 active torsions:
REMARK  status: ('A' for Active; 'I' for Inactive)
REMARK    1  A    between atoms: C_1  and  C_2
REMARK    2  A    between atoms: C_2  and  C_3
REMARK    3  A    between atoms: C_2  and  C_4
REMARK    4  A    between atoms: C_2  and  C_5
REMARK    5  A    between atoms: C_8  and  O_11
REMARK    6  A    between atoms: O_11  and  C_12
REMARK    7  A    between atoms: C_12  and  C_13
REMARK    8  A    between atoms: C_13  and  N_14
REMARK    9  A    between atoms: C_16  and  C_23
REMARK   10  A    between atoms: N_29  and  C_32
REMARK   11  A    between atoms: C_32  and  C_33
REMARK                            x       y       z     vdW  Elec       q    Type
REMARK                         _______ _______ _______ _____ _____    ______ ____
ROOT
ATOM      1  N   UNL     1      -0.678  -0.595  -1.789  0.00  0.00    -0.343 N 
ATOM      2  C   UNL     1      -0.951   0.586  -1.185  0.00  0.00    +0.013 A 
ATOM      3  C   UNL     1      -1.703   0.377  -0.036  0.00  0.00    +0.001 A 
ATOM      4  C   UNL     1      -1.841  -0.996   0.080  0.00  0.00    +0.007 A 
ATOM      5  C   UNL     1      -1.213  -1.555  -1.006  0.00  0.00    +0.050 A 
ATOM      6  C   UNL     1      -1.137  -2.942  -1.169  0.00  0.00    -0.038 A 
ATOM      7  C   UNL     1      -1.723  -3.756  -0.183  0.00  0.00    -0.060 A 
ATOM      8  C   UNL     1      -2.354  -3.178   0.939  0.00  0.00    -0.061 A 
ATOM      9  C   UNL     1      -2.409  -1.782   1.085  0.00  0.00    -0.052 A 
ATOM     10  H   UNL     1      -0.605   1.548  -1.544  0.00  0.00    +0.082 HD
ATOM     11  H   UNL     1      -0.635  -3.386  -2.018  0.00  0.00    +0.064 HD
ATOM     12  H   UNL     1      -1.681  -4.833  -0.281  0.00  0.00    +0.062 HD
ATOM     13  H   UNL     1      -2.791  -3.815   1.697  0.00  0.00    +0.062 HD
ATOM     14  H   UNL     1      -2.873  -1.336   1.955  0.00  0.00    +0.062 HD
ENDROOT
BRANCH   3  15
ATOM     15  C   UNL     1      -2.088   1.413   0.938  0.00  0.00    -0.035 C 
ATOM     16  C   UNL     1      -3.328   1.574   1.449  0.00  0.00    +0.102 C 
ATOM     17  C   UNL     1      -3.564   2.541   2.542  0.00  0.00    +0.276 C 
ATOM     18  O   UNL     1      -2.638   3.285   2.962  0.00  0.00    -0.268 OA
ATOM     19  N   UNL     1      -4.856   2.630   3.151  0.00  0.00    -0.123 NA
ATOM     20  C   UNL     1      -5.870   1.903   2.789  0.00  0.00    +0.336 C 
ATOM     21  N   UNL     1      -5.758   0.947   1.713  0.00  0.00    -0.213 N 
ATOM     22  C   UNL     1      -4.530   0.855   0.963  0.00  0.00    +0.260 C 
ATOM     23  O   UNL     1      -4.507   0.217  -0.125  0.00  0.00    -0.269 OA
ATOM     24  O   UNL     1      -7.079   2.066   3.457  0.00  0.00    -0.250 OA
ATOM     25  H   UNL     1      -1.290   2.072   1.259  0.00  0.00    +0.063 HD
BRANCH  21  26
ATOM     26  C   UNL     1      -6.929   0.160   1.307  0.00  0.00    +0.082 C 
ATOM     27  H   UNL     1      -7.578  -0.059   2.182  0.00  0.00    +0.055 HD
ATOM     28  H   UNL     1      -6.610  -0.825   0.901  0.00  0.00    +0.055 HD
BRANCH  26  29
ATOM     29  C   UNL     1      -7.707   0.897   0.263  0.00  0.00    +0.123 A 
ATOM     30  C   UNL     1      -8.750   1.770   0.498  0.00  0.00    -0.019 A 
ATOM     31  C   UNL     1      -9.133   2.229  -0.743  0.00  0.00    -0.024 A 
ATOM     32  C   UNL     1      -8.300   1.612  -1.655  0.00  0.00    +0.092 A 
ATOM     33  O   UNL     1      -7.459   0.826  -1.024  0.00  0.00    -0.466 OA
ATOM     34  H   UNL     1      -9.176   2.043   1.454  0.00  0.00    +0.065 HD
ATOM     35  H   UNL     1      -9.925   2.934  -0.959  0.00  0.00    +0.065 HD
ATOM     36  H   UNL     1      -8.323   1.747  -2.728  0.00  0.00    +0.103 HD
ENDBRANCH  26  29
ENDBRANCH  21  26
ENDBRANCH   3  15
BRANCH   1  37
ATOM     37  C   UNL     1       0.158  -0.772  -2.978  0.00  0.00    +0.057 C 
ATOM     38  H   UNL     1      -0.237  -1.605  -3.598  0.00  0.00    +0.053 HD
ATOM     39  H   UNL     1       0.129   0.149  -3.601  0.00  0.00    +0.053 HD
BRANCH  37  40
ATOM     40  C   UNL     1       1.601  -1.068  -2.579  0.00  0.00    +0.107 C 
ATOM     41  H   UNL     1       1.634  -2.000  -1.974  0.00  0.00    +0.071 HD
ATOM     42  H   UNL     1       2.209  -1.209  -3.499  0.00  0.00    +0.071 HD
BRANCH  40  43
ATOM     43  O   UNL     1       2.124   0.021  -1.822  0.00  0.00    -0.490 OA
BRANCH  43  47
ATOM     44  C   UNL     1       5.993   0.223  -0.101  0.00  0.00    -0.042 A 
ATOM     45  C   UNL     1       5.606  -0.903  -0.860  0.00  0.00    -0.055 A 
ATOM     46  C   UNL     1       4.335  -0.986  -1.435  0.00  0.00    -0.020 A 
ATOM     47  C   UNL     1       3.411   0.058  -1.268  0.00  0.00    +0.121 A 
ATOM     48  C   UNL     1       3.780   1.177  -0.521  0.00  0.00    -0.020 A 
ATOM     49  C   UNL     1       5.049   1.265   0.057  0.00  0.00    -0.055 A 
ATOM     50  H   UNL     1       6.286  -1.729  -1.014  0.00  0.00    +0.062 HD
ATOM     51  H   UNL     1       4.083  -1.867  -2.010  0.00  0.00    +0.065 HD
ATOM     52  H   UNL     1       3.075   1.988  -0.385  0.00  0.00    +0.065 HD
ATOM     53  H   UNL     1       5.271   2.158   0.623  0.00  0.00    +0.062 HD
BRANCH  44  54
ATOM     54  C   UNL     1       7.406   0.275   0.518  0.00  0.00    -0.013 C 
BRANCH  54  55
ATOM     55  C   UNL     1       7.670   1.574   1.318  0.00  0.00    -0.056 C 
ATOM     56  H   UNL     1       6.957   1.670   2.165  0.00  0.00    +0.024 HD
ATOM     57  H   UNL     1       7.586   2.467   0.662  0.00  0.00    +0.024 HD
ATOM     58  H   UNL     1       8.696   1.571   1.747  0.00  0.00    +0.024 HD
ENDBRANCH  54  55
BRANCH  54  59
ATOM     59  C   UNL     1       7.589  -0.916   1.484  0.00  0.00    -0.056 C 
ATOM     60  H   UNL     1       8.585  -0.875   1.976  0.00  0.00    +0.024 HD
ATOM     61  H   UNL     1       7.520  -1.887   0.952  0.00  0.00    +0.024 HD
ATOM     62  H   UNL     1       6.808  -0.895   2.275  0.00  0.00    +0.024 HD
ENDBRANCH  54  59
BRANCH  54  63
ATOM     63  C   UNL     1       8.463   0.193  -0.604  0.00  0.00    -0.056 C 
ATOM     64  H   UNL     1       9.490   0.271  -0.185  0.00  0.00    +0.024 HD
ATOM     65  H   UNL     1       8.319   1.019  -1.332  0.00  0.00    +0.024 HD
ATOM     66  H   UNL     1       8.402  -0.770  -1.153  0.00  0.00    +0.024 HD
ENDBRANCH  54  63
ENDBRANCH  44  54
ENDBRANCH  43  47
ENDBRANCH  40  43
ENDBRANCH  37  40
ENDBRANCH   1  37
TORSDOF 11
