REMARK  Name = 
REMARK  11 active torsions:
REMARK  status: ('A' for Active; 'I' for Inactive)
REMARK    1  A    between atoms: C_1  and  C_2
REMARK    2  A    between atoms: C_2  and  C_3
REMARK    3  A    between atoms: C_2  and  C_4
REMARK    4  A    between atoms: C_2  and  C_5
REMARK    5  A    between atoms: C_8  and  O_11
REMARK    6  A    between atoms: O_11  and  C_12
REMARK    7  A    between atoms: C_12  and  C_13
REMARK    8  A    between atoms: C_13  and  N_14
REMARK    9  A    between atoms: C_16  and  C_23
REMARK   10  A    between atoms: N_29  and  C_32
REMARK   11  A    between atoms: C_32  and  C_33
REMARK                            x       y       z     vdW  Elec       q    Type
REMARK                         _______ _______ _______ _____ _____    ______ ____
ROOT
ATOM      1  N   UNL     1      -0.433   0.735   0.400  0.00  0.00    -0.343 N 
ATOM      2  C   UNL     1      -0.713  -0.576   0.206  0.00  0.00    +0.013 A 
ATOM      3  C   UNL     1      -2.069  -0.810   0.393  0.00  0.00    +0.001 A 
ATOM      4  C   UNL     1      -2.615   0.406   0.769  0.00  0.00    +0.007 A 
ATOM      5  C   UNL     1      -1.594   1.325   0.755  0.00  0.00    +0.050 A 
ATOM      6  C   UNL     1      -1.807   2.656   1.126  0.00  0.00    -0.038 A 
ATOM      7  C   UNL     1      -3.105   3.033   1.516  0.00  0.00    -0.060 A 
ATOM      8  C   UNL     1      -4.148   2.083   1.546  0.00  0.00    -0.061 A 
ATOM      9  C   UNL     1      -3.906   0.749   1.178  0.00  0.00    -0.052 A 
ATOM     10  H   UNL     1       0.028  -1.326  -0.041  0.00  0.00    +0.082 HD
ATOM     11  H   UNL     1      -1.004   3.381   1.125  0.00  0.00    +0.064 HD
ATOM     12  H   UNL     1      -3.302   4.056   1.808  0.00  0.00    +0.062 HD
ATOM     13  H   UNL     1      -5.139   2.382   1.861  0.00  0.00    +0.062 HD
ATOM     14  H   UNL     1      -4.700   0.014   1.217  0.00  0.00    +0.062 HD
ENDROOT
BRANCH   3  15
ATOM     15  C   UNL     1      -2.726  -2.128   0.364  0.00  0.00    -0.035 C 
ATOM     16  C   UNL     1      -3.871  -2.403  -0.298  0.00  0.00    +0.102 C 
ATOM     17  C   UNL     1      -4.563  -3.692  -0.094  0.00  0.00    +0.276 C 
ATOM     18  O   UNL     1      -4.029  -4.617   0.576  0.00  0.00    -0.268 OA
ATOM     19  N   UNL     1      -5.872  -3.892  -0.634  0.00  0.00    -0.123 NA
ATOM     20  C   UNL     1      -6.488  -3.009  -1.362  0.00  0.00    +0.336 C 
ATOM     21  N   UNL     1      -5.856  -1.759  -1.715  0.00  0.00    -0.213 N 
ATOM     22  C   UNL     1      -4.517  -1.480  -1.260  0.00  0.00    +0.260 C 
ATOM     23  O   UNL     1      -3.890  -0.489  -1.725  0.00  0.00    -0.269 OA
ATOM     24  O   UNL     1      -7.775  -3.293  -1.807  0.00  0.00    -0.250 OA
ATOM     25  H   UNL     1      -2.251  -2.904   0.952  0.00  0.00    +0.063 HD
BRANCH  21  26
ATOM     26  C   UNL     1      -6.609  -0.730  -2.444  0.00  0.00    +0.082 C 
ATOM     27  H   UNL     1      -5.944  -0.193  -3.155  0.00  0.00    +0.055 HD
ATOM     28  H   UNL     1      -7.415  -1.185  -3.057  0.00  0.00    +0.055 HD
BRANCH  26  29
ATOM     29  C   UNL     1      -7.210   0.238  -1.476  0.00  0.00    +0.123 A 
ATOM     30  C   UNL     1      -6.642   1.427  -1.064  0.00  0.00    -0.019 A 
ATOM     31  C   UNL     1      -7.521   1.958  -0.146  0.00  0.00    -0.024 A 
ATOM     32  C   UNL     1      -8.566   1.061  -0.053  0.00  0.00    +0.092 A 
ATOM     33  O   UNL     1      -8.350   0.044  -0.855  0.00  0.00    -0.466 OA
ATOM     34  H   UNL     1      -5.698   1.850  -1.384  0.00  0.00    +0.065 HD
ATOM     35  H   UNL     1      -7.412   2.888   0.396  0.00  0.00    +0.065 HD
ATOM     36  H   UNL     1      -9.436   1.164   0.582  0.00  0.00    +0.103 HD
ENDBRANCH  26  29
ENDBRANCH  21  26
ENDBRANCH   3  15
BRANCH   1  37
ATOM     37  C   UNL     1       0.900   1.336   0.355  0.00  0.00    +0.057 C 
ATOM     38  H   UNL     1       0.837   2.375  -0.031  0.00  0.00    +0.053 HD
ATOM     39  H   UNL     1       1.540   0.763  -0.349  0.00  0.00    +0.053 HD
BRANCH  37  40
ATOM     40  C   UNL     1       1.525   1.341   1.752  0.00  0.00    +0.107 C 
ATOM     41  H   UNL     1       0.906   1.980   2.416  0.00  0.00    +0.071 HD
ATOM     42  H   UNL     1       1.534   0.321   2.193  0.00  0.00    +0.071 HD
BRANCH  40  43
ATOM     43  O   UNL     1       2.843   1.886   1.713  0.00  0.00    -0.490 OA
BRANCH  43  47
ATOM     44  C   UNL     1       6.357  -0.012   0.276  0.00  0.00    -0.042 A 
ATOM     45  C   UNL     1       5.140  -0.724   0.349  0.00  0.00    -0.055 A 
ATOM     46  C   UNL     1       3.973  -0.118   0.820  0.00  0.00    -0.020 A 
ATOM     47  C   UNL     1       3.986   1.225   1.231  0.00  0.00    +0.121 A 
ATOM     48  C   UNL     1       5.183   1.940   1.169  0.00  0.00    -0.020 A 
ATOM     49  C   UNL     1       6.354   1.338   0.699  0.00  0.00    -0.055 A 
ATOM     50  H   UNL     1       5.084  -1.759   0.041  0.00  0.00    +0.062 HD
ATOM     51  H   UNL     1       3.069  -0.709   0.858  0.00  0.00    +0.065 HD
ATOM     52  H   UNL     1       5.208   2.975   1.486  0.00  0.00    +0.065 HD
ATOM     53  H   UNL     1       7.244   1.948   0.675  0.00  0.00    +0.062 HD
BRANCH  44  54
ATOM     54  C   UNL     1       7.624  -0.719  -0.251  0.00  0.00    -0.013 C 
BRANCH  54  55
ATOM     55  C   UNL     1       8.869   0.201  -0.268  0.00  0.00    -0.056 C 
ATOM     56  H   UNL     1       9.757  -0.346  -0.655  0.00  0.00    +0.024 HD
ATOM     57  H   UNL     1       8.704   1.078  -0.930  0.00  0.00    +0.024 HD
ATOM     58  H   UNL     1       9.116   0.553   0.756  0.00  0.00    +0.024 HD
ENDBRANCH  54  55
BRANCH  54  59
ATOM     59  C   UNL     1       7.379  -1.203  -1.697  0.00  0.00    -0.056 C 
ATOM     60  H   UNL     1       8.294  -1.678  -2.114  0.00  0.00    +0.024 HD
ATOM     61  H   UNL     1       6.564  -1.955  -1.743  0.00  0.00    +0.024 HD
ATOM     62  H   UNL     1       7.102  -0.347  -2.349  0.00  0.00    +0.024 HD
ENDBRANCH  54  59
BRANCH  54  63
ATOM     63  C   UNL     1       7.949  -1.931   0.648  0.00  0.00    -0.056 C 
ATOM     64  H   UNL     1       8.086  -1.605   1.702  0.00  0.00    +0.024 HD
ATOM     65  H   UNL     1       8.883  -2.432   0.313  0.00  0.00    +0.024 HD
ATOM     66  H   UNL     1       7.138  -2.689   0.621  0.00  0.00    +0.024 HD
ENDBRANCH  54  63
ENDBRANCH  44  54
ENDBRANCH  43  47
ENDBRANCH  40  43
ENDBRANCH  37  40
ENDBRANCH   1  37
TORSDOF 11
