REMARK  Name = 
REMARK  11 active torsions:
REMARK  status: ('A' for Active; 'I' for Inactive)
REMARK    1  A    between atoms: C_1  and  C_2
REMARK    2  A    between atoms: C_2  and  C_3
REMARK    3  A    between atoms: C_2  and  C_4
REMARK    4  A    between atoms: C_2  and  C_5
REMARK    5  A    between atoms: C_8  and  O_11
REMARK    6  A    between atoms: O_11  and  C_12
REMARK    7  A    between atoms: C_12  and  C_13
REMARK    8  A    between atoms: C_13  and  N_14
REMARK    9  A    between atoms: C_16  and  C_23
REMARK   10  A    between atoms: N_29  and  C_32
REMARK   11  A    between atoms: C_32  and  C_33
REMARK                            x       y       z     vdW  Elec       q    Type
REMARK                         _______ _______ _______ _____ _____    ______ ____
ROOT
ATOM      1  N   UNL     1       0.453   1.545   0.243  0.00  0.00    -0.343 N 
ATOM      2  C   UNL     1       1.382   2.522   0.369  0.00  0.00    +0.013 A 
ATOM      3  C   UNL     1       2.643   1.967   0.543  0.00  0.00    +0.001 A 
ATOM      4  C   UNL     1       2.452   0.596   0.576  0.00  0.00    +0.007 A 
ATOM      5  C   UNL     1       1.110   0.374   0.382  0.00  0.00    +0.050 A 
ATOM      6  C   UNL     1       0.578  -0.919   0.394  0.00  0.00    -0.038 A 
ATOM      7  C   UNL     1       1.457  -1.994   0.614  0.00  0.00    -0.060 A 
ATOM      8  C   UNL     1       2.832  -1.761   0.831  0.00  0.00    -0.061 A 
ATOM      9  C   UNL     1       3.342  -0.452   0.822  0.00  0.00    -0.052 A 
ATOM     10  H   UNL     1       1.158   3.582   0.353  0.00  0.00    +0.082 HD
ATOM     11  H   UNL     1      -0.477  -1.099   0.246  0.00  0.00    +0.064 HD
ATOM     12  H   UNL     1       1.075  -3.006   0.627  0.00  0.00    +0.062 HD
ATOM     13  H   UNL     1       3.497  -2.595   1.012  0.00  0.00    +0.062 HD
ATOM     14  H   UNL     1       4.393  -0.269   1.005  0.00  0.00    +0.062 HD
ENDROOT
BRANCH   3  15
ATOM     15  C   UNL     1       3.884   2.716   0.810  0.00  0.00    -0.035 C 
ATOM     16  C   UNL     1       5.060   2.506   0.182  0.00  0.00    +0.102 C 
ATOM     17  C   UNL     1       6.294   3.157   0.667  0.00  0.00    +0.276 C 
ATOM     18  O   UNL     1       6.254   4.034   1.571  0.00  0.00    -0.268 OA
ATOM     19  N   UNL     1       7.562   2.770   0.129  0.00  0.00    -0.123 NA
ATOM     20  C   UNL     1       7.700   1.900  -0.826  0.00  0.00    +0.336 C 
ATOM     21  N   UNL     1       6.549   1.285  -1.447  0.00  0.00    -0.213 N 
ATOM     22  C   UNL     1       5.223   1.642  -1.010  0.00  0.00    +0.260 C 
ATOM     23  O   UNL     1       4.220   1.265  -1.676  0.00  0.00    -0.269 OA
ATOM     24  O   UNL     1       8.983   1.571  -1.248  0.00  0.00    -0.250 OA
ATOM     25  H   UNL     1       3.824   3.459   1.596  0.00  0.00    +0.063 HD
BRANCH  21  26
ATOM     26  C   UNL     1       6.729   0.224  -2.447  0.00  0.00    +0.082 C 
ATOM     27  H   UNL     1       5.949   0.297  -3.236  0.00  0.00    +0.055 HD
ATOM     28  H   UNL     1       7.705   0.325  -2.966  0.00  0.00    +0.055 HD
BRANCH  26  29
ATOM     29  C   UNL     1       6.658  -1.114  -1.782  0.00  0.00    +0.123 A 
ATOM     30  C   UNL     1       5.527  -1.894  -1.654  0.00  0.00    -0.019 A 
ATOM     31  C   UNL     1       5.923  -3.005  -0.942  0.00  0.00    -0.024 A 
ATOM     32  C   UNL     1       7.267  -2.832  -0.678  0.00  0.00    +0.092 A 
ATOM     33  O   UNL     1       7.676  -1.693  -1.189  0.00  0.00    -0.466 OA
ATOM     34  H   UNL     1       4.533  -1.676  -2.022  0.00  0.00    +0.065 HD
ATOM     35  H   UNL     1       5.304  -3.841  -0.644  0.00  0.00    +0.065 HD
ATOM     36  H   UNL     1       7.899  -3.519  -0.132  0.00  0.00    +0.103 HD
ENDBRANCH  26  29
ENDBRANCH  21  26
ENDBRANCH   3  15
BRANCH   1  37
ATOM     37  C   UNL     1      -0.990   1.754   0.117  0.00  0.00    +0.057 C 
ATOM     38  H   UNL     1      -1.183   2.725  -0.389  0.00  0.00    +0.053 HD
ATOM     39  H   UNL     1      -1.433   0.958  -0.517  0.00  0.00    +0.053 HD
BRANCH  37  40
ATOM     40  C   UNL     1      -1.646   1.768   1.500  0.00  0.00    +0.107 C 
ATOM     41  H   UNL     1      -1.491   0.805   2.031  0.00  0.00    +0.071 HD
ATOM     42  H   UNL     1      -1.166   2.562   2.110  0.00  0.00    +0.071 HD
BRANCH  40  43
ATOM     43  O   UNL     1      -3.037   2.073   1.395  0.00  0.00    -0.490 OA
BRANCH  43  47
ATOM     44  C   UNL     1      -6.133  -0.496   0.042  0.00  0.00    -0.042 A 
ATOM     45  C   UNL     1      -4.823  -0.995   0.230  0.00  0.00    -0.055 A 
ATOM     46  C   UNL     1      -3.792  -0.164   0.676  0.00  0.00    -0.020 A 
ATOM     47  C   UNL     1      -4.036   1.193   0.946  0.00  0.00    +0.121 A 
ATOM     48  C   UNL     1      -5.326   1.696   0.771  0.00  0.00    -0.020 A 
ATOM     49  C   UNL     1      -6.360   0.869   0.325  0.00  0.00    -0.055 A 
ATOM     50  H   UNL     1      -4.572  -2.028   0.039  0.00  0.00    +0.062 HD
ATOM     51  H   UNL     1      -2.811  -0.593   0.812  0.00  0.00    +0.065 HD
ATOM     52  H   UNL     1      -5.530   2.739   0.979  0.00  0.00    +0.065 HD
ATOM     53  H   UNL     1      -7.341   1.306   0.203  0.00  0.00    +0.062 HD
BRANCH  44  54
ATOM     54  C   UNL     1      -7.301  -1.376  -0.449  0.00  0.00    -0.013 C 
BRANCH  54  55
ATOM     55  C   UNL     1      -8.418  -1.392   0.617  0.00  0.00    -0.056 C 
ATOM     56  H   UNL     1      -9.253  -2.055   0.303  0.00  0.00    +0.024 HD
ATOM     57  H   UNL     1      -8.022  -1.764   1.586  0.00  0.00    +0.024 HD
ATOM     58  H   UNL     1      -8.842  -0.379   0.779  0.00  0.00    +0.024 HD
ENDBRANCH  54  55
BRANCH  54  59
ATOM     59  C   UNL     1      -6.884  -2.843  -0.715  0.00  0.00    -0.056 C 
ATOM     60  H   UNL     1      -6.506  -3.323   0.214  0.00  0.00    +0.024 HD
ATOM     61  H   UNL     1      -7.752  -3.441  -1.069  0.00  0.00    +0.024 HD
ATOM     62  H   UNL     1      -6.101  -2.896  -1.502  0.00  0.00    +0.024 HD
ENDBRANCH  54  59
BRANCH  54  63
ATOM     63  C   UNL     1      -7.859  -0.801  -1.769  0.00  0.00    -0.056 C 
ATOM     64  H   UNL     1      -8.279   0.216  -1.626  0.00  0.00    +0.024 HD
ATOM     65  H   UNL     1      -7.056  -0.743  -2.535  0.00  0.00    +0.024 HD
ATOM     66  H   UNL     1      -8.674  -1.444  -2.166  0.00  0.00    +0.024 HD
ENDBRANCH  54  63
ENDBRANCH  44  54
ENDBRANCH  43  47
ENDBRANCH  40  43
ENDBRANCH  37  40
ENDBRANCH   1  37
TORSDOF 11
