REMARK  Name = 
REMARK  11 active torsions:
REMARK  status: ('A' for Active; 'I' for Inactive)
REMARK    1  A    between atoms: C_1  and  C_2
REMARK    2  A    between atoms: C_2  and  C_3
REMARK    3  A    between atoms: C_2  and  C_4
REMARK    4  A    between atoms: C_2  and  C_5
REMARK    5  A    between atoms: C_8  and  O_11
REMARK    6  A    between atoms: O_11  and  C_12
REMARK    7  A    between atoms: C_12  and  C_13
REMARK    8  A    between atoms: C_13  and  N_14
REMARK    9  A    between atoms: C_16  and  C_23
REMARK   10  A    between atoms: N_29  and  C_32
REMARK   11  A    between atoms: C_32  and  C_33
REMARK                            x       y       z     vdW  Elec       q    Type
REMARK                         _______ _______ _______ _____ _____    ______ ____
ROOT
ATOM      1  N   UNL     1      -0.139   1.356   1.741  0.00  0.00    -0.343 N 
ATOM      2  C   UNL     1      -1.196   2.124   1.383  0.00  0.00    +0.013 A 
ATOM      3  C   UNL     1      -1.748   1.664   0.195  0.00  0.00    +0.001 A 
ATOM      4  C   UNL     1      -0.957   0.600  -0.202  0.00  0.00    +0.007 A 
ATOM      5  C   UNL     1       0.001   0.427   0.768  0.00  0.00    +0.050 A 
ATOM      6  C   UNL     1       0.978  -0.570   0.650  0.00  0.00    -0.038 A 
ATOM      7  C   UNL     1       0.971  -1.373  -0.503  0.00  0.00    -0.060 A 
ATOM      8  C   UNL     1       0.002  -1.172  -1.508  0.00  0.00    -0.061 A 
ATOM      9  C   UNL     1      -0.975  -0.172  -1.366  0.00  0.00    -0.052 A 
ATOM     10  H   UNL     1      -1.532   2.992   1.937  0.00  0.00    +0.082 HD
ATOM     11  H   UNL     1       1.731  -0.727   1.409  0.00  0.00    +0.064 HD
ATOM     12  H   UNL     1       1.720  -2.144  -0.625  0.00  0.00    +0.062 HD
ATOM     13  H   UNL     1       0.013  -1.789  -2.397  0.00  0.00    +0.062 HD
ATOM     14  H   UNL     1      -1.710  -0.006  -2.141  0.00  0.00    +0.062 HD
ENDROOT
BRANCH   3  15
ATOM     15  C   UNL     1      -2.831   2.320  -0.558  0.00  0.00    -0.035 C 
ATOM     16  C   UNL     1      -3.915   1.692  -1.064  0.00  0.00    +0.102 C 
ATOM     17  C   UNL     1      -4.855   2.417  -1.944  0.00  0.00    +0.276 C 
ATOM     18  O   UNL     1      -4.709   3.648  -2.175  0.00  0.00    -0.268 OA
ATOM     19  N   UNL     1      -5.940   1.719  -2.561  0.00  0.00    -0.123 NA
ATOM     20  C   UNL     1      -6.169   0.453  -2.387  0.00  0.00    +0.336 C 
ATOM     21  N   UNL     1      -5.330  -0.346  -1.524  0.00  0.00    -0.213 N 
ATOM     22  C   UNL     1      -4.274   0.283  -0.771  0.00  0.00    +0.260 C 
ATOM     23  O   UNL     1      -3.711  -0.347   0.165  0.00  0.00    -0.269 OA
ATOM     24  O   UNL     1      -7.249  -0.127  -3.044  0.00  0.00    -0.250 OA
ATOM     25  H   UNL     1      -2.712   3.385  -0.715  0.00  0.00    +0.063 HD
BRANCH  21  26
ATOM     26  C   UNL     1      -5.629  -1.770  -1.324  0.00  0.00    +0.082 C 
ATOM     27  H   UNL     1      -6.066  -2.213  -2.244  0.00  0.00    +0.055 HD
ATOM     28  H   UNL     1      -4.694  -2.335  -1.118  0.00  0.00    +0.055 HD
BRANCH  26  29
ATOM     29  C   UNL     1      -6.574  -1.939  -0.176  0.00  0.00    +0.123 A 
ATOM     30  C   UNL     1      -7.951  -1.968  -0.260  0.00  0.00    -0.019 A 
ATOM     31  C   UNL     1      -8.398  -2.108   1.036  0.00  0.00    -0.024 A 
ATOM     32  C   UNL     1      -7.267  -2.151   1.828  0.00  0.00    +0.092 A 
ATOM     33  O   UNL     1      -6.196  -2.046   1.076  0.00  0.00    -0.466 OA
ATOM     34  H   UNL     1      -8.557  -1.893  -1.153  0.00  0.00    +0.065 HD
ATOM     35  H   UNL     1      -9.426  -2.167   1.367  0.00  0.00    +0.065 HD
ATOM     36  H   UNL     1      -7.251  -2.254   2.905  0.00  0.00    +0.103 HD
ENDBRANCH  26  29
ENDBRANCH  21  26
ENDBRANCH   3  15
BRANCH   1  37
ATOM     37  C   UNL     1       0.744   1.614   2.882  0.00  0.00    +0.057 C 
ATOM     38  H   UNL     1       0.127   1.790   3.790  0.00  0.00    +0.053 HD
ATOM     39  H   UNL     1       1.379   0.732   3.097  0.00  0.00    +0.053 HD
BRANCH  37  40
ATOM     40  C   UNL     1       1.621   2.849   2.630  0.00  0.00    +0.107 C 
ATOM     41  H   UNL     1       0.986   3.756   2.709  0.00  0.00    +0.071 HD
ATOM     42  H   UNL     1       2.412   2.934   3.404  0.00  0.00    +0.071 HD
BRANCH  40  43
ATOM     43  O   UNL     1       2.195   2.826   1.321  0.00  0.00    -0.490 OA
BRANCH  43  47
ATOM     44  C   UNL     1       4.985  -0.004  -0.150  0.00  0.00    -0.042 A 
ATOM     45  C   UNL     1       4.246   0.836  -1.014  0.00  0.00    -0.055 A 
ATOM     46  C   UNL     1       3.352   1.781  -0.505  0.00  0.00    -0.020 A 
ATOM     47  C   UNL     1       3.156   1.909   0.871  0.00  0.00    +0.121 A 
ATOM     48  C   UNL     1       3.908   1.108   1.745  0.00  0.00    -0.020 A 
ATOM     49  C   UNL     1       4.804   0.164   1.241  0.00  0.00    -0.055 A 
ATOM     50  H   UNL     1       4.334   0.773  -2.088  0.00  0.00    +0.062 HD
ATOM     51  H   UNL     1       2.782   2.399  -1.188  0.00  0.00    +0.065 HD
ATOM     52  H   UNL     1       3.798   1.196   2.817  0.00  0.00    +0.065 HD
ATOM     53  H   UNL     1       5.349  -0.446   1.948  0.00  0.00    +0.062 HD
BRANCH  44  54
ATOM     54  C   UNL     1       5.955  -1.087  -0.667  0.00  0.00    -0.013 C 
BRANCH  54  55
ATOM     55  C   UNL     1       5.484  -2.473  -0.175  0.00  0.00    -0.056 C 
ATOM     56  H   UNL     1       4.446  -2.672  -0.518  0.00  0.00    +0.024 HD
ATOM     57  H   UNL     1       6.143  -3.276  -0.570  0.00  0.00    +0.024 HD
ATOM     58  H   UNL     1       5.504  -2.541   0.932  0.00  0.00    +0.024 HD
ENDBRANCH  54  55
BRANCH  54  59
ATOM     59  C   UNL     1       6.038  -1.140  -2.212  0.00  0.00    -0.056 C 
ATOM     60  H   UNL     1       6.746  -1.931  -2.542  0.00  0.00    +0.024 HD
ATOM     61  H   UNL     1       5.046  -1.376  -2.654  0.00  0.00    +0.024 HD
ATOM     62  H   UNL     1       6.403  -0.173  -2.622  0.00  0.00    +0.024 HD
ENDBRANCH  54  59
BRANCH  54  63
ATOM     63  C   UNL     1       7.376  -0.806  -0.131  0.00  0.00    -0.056 C 
ATOM     64  H   UNL     1       7.712   0.208  -0.439  0.00  0.00    +0.024 HD
ATOM     65  H   UNL     1       7.414  -0.865   0.977  0.00  0.00    +0.024 HD
ATOM     66  H   UNL     1       8.101  -1.550  -0.527  0.00  0.00    +0.024 HD
ENDBRANCH  54  63
ENDBRANCH  44  54
ENDBRANCH  43  47
ENDBRANCH  40  43
ENDBRANCH  37  40
ENDBRANCH   1  37
TORSDOF 11
