REMARK  Name = 
REMARK  11 active torsions:
REMARK  status: ('A' for Active; 'I' for Inactive)
REMARK    1  A    between atoms: C_1  and  C_2
REMARK    2  A    between atoms: C_2  and  C_3
REMARK    3  A    between atoms: C_2  and  C_4
REMARK    4  A    between atoms: C_2  and  C_5
REMARK    5  A    between atoms: C_8  and  O_11
REMARK    6  A    between atoms: O_11  and  C_12
REMARK    7  A    between atoms: C_12  and  C_13
REMARK    8  A    between atoms: C_13  and  N_14
REMARK    9  A    between atoms: C_16  and  C_23
REMARK   10  A    between atoms: N_29  and  C_32
REMARK   11  A    between atoms: C_32  and  C_33
REMARK                            x       y       z     vdW  Elec       q    Type
REMARK                         _______ _______ _______ _____ _____    ______ ____
ROOT
ATOM      1  N   UNL     1       1.139  -1.448   2.618  0.00  0.00    -0.343 N 
ATOM      2  C   UNL     1       1.779  -1.422   1.426  0.00  0.00    +0.013 A 
ATOM      3  C   UNL     1       2.093  -2.714   1.010  0.00  0.00    +0.001 A 
ATOM      4  C   UNL     1       1.565  -3.549   1.977  0.00  0.00    +0.007 A 
ATOM      5  C   UNL     1       0.996  -2.751   2.941  0.00  0.00    +0.050 A 
ATOM      6  C   UNL     1       0.337  -3.301   4.045  0.00  0.00    -0.038 A 
ATOM      7  C   UNL     1       0.284  -4.703   4.151  0.00  0.00    -0.060 A 
ATOM      8  C   UNL     1       0.874  -5.518   3.162  0.00  0.00    -0.061 A 
ATOM      9  C   UNL     1       1.520  -4.941   2.054  0.00  0.00    -0.052 A 
ATOM     10  H   UNL     1       1.951  -0.517   0.859  0.00  0.00    +0.082 HD
ATOM     11  H   UNL     1      -0.130  -2.681   4.797  0.00  0.00    +0.064 HD
ATOM     12  H   UNL     1      -0.217  -5.159   4.994  0.00  0.00    +0.062 HD
ATOM     13  H   UNL     1       0.823  -6.596   3.252  0.00  0.00    +0.062 HD
ATOM     14  H   UNL     1       1.967  -5.562   1.289  0.00  0.00    +0.062 HD
ENDROOT
BRANCH   3  15
ATOM     15  C   UNL     1       2.644  -3.124  -0.300  0.00  0.00    -0.035 C 
ATOM     16  C   UNL     1       3.512  -2.399  -1.037  0.00  0.00    +0.102 C 
ATOM     17  C   UNL     1       3.749  -2.721  -2.458  0.00  0.00    +0.276 C 
ATOM     18  O   UNL     1       3.357  -3.812  -2.952  0.00  0.00    -0.268 OA
ATOM     19  N   UNL     1       4.400  -1.765  -3.302  0.00  0.00    -0.123 NA
ATOM     20  C   UNL     1       4.855  -0.625  -2.872  0.00  0.00    +0.336 C 
ATOM     21  N   UNL     1       4.776  -0.272  -1.472  0.00  0.00    -0.213 N 
ATOM     22  C   UNL     1       4.258  -1.229  -0.531  0.00  0.00    +0.260 C 
ATOM     23  O   UNL     1       4.509  -1.105   0.699  0.00  0.00    -0.269 OA
ATOM     24  O   UNL     1       5.433   0.251  -3.784  0.00  0.00    -0.250 OA
ATOM     25  H   UNL     1       2.231  -4.033  -0.720  0.00  0.00    +0.063 HD
BRANCH  21  26
ATOM     26  C   UNL     1       5.099   1.087  -1.020  0.00  0.00    +0.082 C 
ATOM     27  H   UNL     1       5.678   1.048  -0.072  0.00  0.00    +0.055 HD
ATOM     28  H   UNL     1       5.738   1.617  -1.758  0.00  0.00    +0.055 HD
BRANCH  26  29
ATOM     29  C   UNL     1       3.836   1.864  -0.817  0.00  0.00    +0.123 A 
ATOM     30  C   UNL     1       3.186   2.050   0.387  0.00  0.00    -0.019 A 
ATOM     31  C   UNL     1       2.050   2.769   0.087  0.00  0.00    -0.024 A 
ATOM     32  C   UNL     1       2.078   2.977  -1.277  0.00  0.00    +0.092 A 
ATOM     33  O   UNL     1       3.153   2.423  -1.789  0.00  0.00    -0.466 OA
ATOM     34  H   UNL     1       3.492   1.690   1.361  0.00  0.00    +0.065 HD
ATOM     35  H   UNL     1       1.285   3.094   0.780  0.00  0.00    +0.065 HD
ATOM     36  H   UNL     1       1.331   3.509  -1.853  0.00  0.00    +0.103 HD
ENDBRANCH  26  29
ENDBRANCH  21  26
ENDBRANCH   3  15
BRANCH   1  37
ATOM     37  C   UNL     1       0.610  -0.276   3.320  0.00  0.00    +0.057 C 
ATOM     38  H   UNL     1       0.507  -0.487   4.405  0.00  0.00    +0.053 HD
ATOM     39  H   UNL     1       1.322   0.572   3.217  0.00  0.00    +0.053 HD
BRANCH  37  40
ATOM     40  C   UNL     1      -0.743   0.130   2.743  0.00  0.00    +0.107 C 
ATOM     41  H   UNL     1      -1.449  -0.726   2.813  0.00  0.00    +0.071 HD
ATOM     42  H   UNL     1      -1.142   0.986   3.329  0.00  0.00    +0.071 HD
BRANCH  40  43
ATOM     43  O   UNL     1      -0.582   0.516   1.380  0.00  0.00    -0.490 OA
BRANCH  43  47
ATOM     44  C   UNL     1      -3.646   1.853  -1.225  0.00  0.00    -0.042 A 
ATOM     45  C   UNL     1      -3.938   1.537   0.121  0.00  0.00    -0.055 A 
ATOM     46  C   UNL     1      -2.941   1.093   0.993  0.00  0.00    -0.020 A 
ATOM     47  C   UNL     1      -1.619   0.952   0.544  0.00  0.00    +0.121 A 
ATOM     48  C   UNL     1      -1.315   1.256  -0.783  0.00  0.00    -0.020 A 
ATOM     49  C   UNL     1      -2.308   1.701  -1.660  0.00  0.00    -0.055 A 
ATOM     50  H   UNL     1      -4.943   1.633   0.507  0.00  0.00    +0.062 HD
ATOM     51  H   UNL     1      -3.210   0.864   2.015  0.00  0.00    +0.065 HD
ATOM     52  H   UNL     1      -0.300   1.143  -1.141  0.00  0.00    +0.065 HD
ATOM     53  H   UNL     1      -2.006   1.919  -2.673  0.00  0.00    +0.062 HD
BRANCH  44  54
ATOM     54  C   UNL     1      -4.775   2.341  -2.156  0.00  0.00    -0.013 C 
BRANCH  54  55
ATOM     55  C   UNL     1      -4.289   2.644  -3.594  0.00  0.00    -0.056 C 
ATOM     56  H   UNL     1      -3.868   1.733  -4.070  0.00  0.00    +0.024 HD
ATOM     57  H   UNL     1      -5.131   2.994  -4.229  0.00  0.00    +0.024 HD
ATOM     58  H   UNL     1      -3.519   3.447  -3.590  0.00  0.00    +0.024 HD
ENDBRANCH  54  55
BRANCH  54  59
ATOM     59  C   UNL     1      -5.388   3.639  -1.585  0.00  0.00    -0.056 C 
ATOM     60  H   UNL     1      -5.857   3.467  -0.594  0.00  0.00    +0.024 HD
ATOM     61  H   UNL     1      -6.176   4.034  -2.262  0.00  0.00    +0.024 HD
ATOM     62  H   UNL     1      -4.604   4.418  -1.470  0.00  0.00    +0.024 HD
ENDBRANCH  54  59
BRANCH  54  63
ATOM     63  C   UNL     1      -5.870   1.256  -2.251  0.00  0.00    -0.056 C 
ATOM     64  H   UNL     1      -5.436   0.301  -2.620  0.00  0.00    +0.024 HD
ATOM     65  H   UNL     1      -6.342   1.065  -1.265  0.00  0.00    +0.024 HD
ATOM     66  H   UNL     1      -6.675   1.568  -2.950  0.00  0.00    +0.024 HD
ENDBRANCH  54  63
ENDBRANCH  44  54
ENDBRANCH  43  47
ENDBRANCH  40  43
ENDBRANCH  37  40
ENDBRANCH   1  37
TORSDOF 11
