REMARK  Name = 
REMARK  11 active torsions:
REMARK  status: ('A' for Active; 'I' for Inactive)
REMARK    1  A    between atoms: C_1  and  C_2
REMARK    2  A    between atoms: C_2  and  C_3
REMARK    3  A    between atoms: C_2  and  C_4
REMARK    4  A    between atoms: C_2  and  C_5
REMARK    5  A    between atoms: C_8  and  O_11
REMARK    6  A    between atoms: O_11  and  C_12
REMARK    7  A    between atoms: C_12  and  C_13
REMARK    8  A    between atoms: C_13  and  N_14
REMARK    9  A    between atoms: C_16  and  C_23
REMARK   10  A    between atoms: N_29  and  C_32
REMARK   11  A    between atoms: C_32  and  C_33
REMARK                            x       y       z     vdW  Elec       q    Type
REMARK                         _______ _______ _______ _____ _____    ______ ____
ROOT
ATOM      1  N   UNL     1       0.047   3.434   0.166  0.00  0.00    -0.343 N 
ATOM      2  C   UNL     1       1.294   3.686   0.633  0.00  0.00    +0.013 A 
ATOM      3  C   UNL     1       2.216   2.860   0.006  0.00  0.00    +0.001 A 
ATOM      4  C   UNL     1       1.496   2.097  -0.895  0.00  0.00    +0.007 A 
ATOM      5  C   UNL     1       0.180   2.467  -0.772  0.00  0.00    +0.050 A 
ATOM      6  C   UNL     1      -0.818   1.853  -1.540  0.00  0.00    -0.038 A 
ATOM      7  C   UNL     1      -0.435   0.841  -2.437  0.00  0.00    -0.060 A 
ATOM      8  C   UNL     1       0.919   0.470  -2.562  0.00  0.00    -0.061 A 
ATOM      9  C   UNL     1       1.905   1.101  -1.784  0.00  0.00    -0.052 A 
ATOM     10  H   UNL     1       1.517   4.385   1.429  0.00  0.00    +0.082 HD
ATOM     11  H   UNL     1      -1.858   2.135  -1.460  0.00  0.00    +0.064 HD
ATOM     12  H   UNL     1      -1.186   0.346  -3.039  0.00  0.00    +0.062 HD
ATOM     13  H   UNL     1       1.202  -0.308  -3.259  0.00  0.00    +0.062 HD
ATOM     14  H   UNL     1       2.945   0.815  -1.870  0.00  0.00    +0.062 HD
ENDROOT
BRANCH   3  15
ATOM     15  C   UNL     1       3.659   2.796   0.286  0.00  0.00    -0.035 C 
ATOM     16  C   UNL     1       4.301   1.675   0.675  0.00  0.00    +0.102 C 
ATOM     17  C   UNL     1       5.776   1.622   0.705  0.00  0.00    +0.276 C 
ATOM     18  O   UNL     1       6.467   2.662   0.536  0.00  0.00    -0.268 OA
ATOM     19  N   UNL     1       6.439   0.368   0.897  0.00  0.00    -0.123 NA
ATOM     20  C   UNL     1       5.811  -0.751   1.103  0.00  0.00    +0.336 C 
ATOM     21  N   UNL     1       4.368  -0.792   1.193  0.00  0.00    -0.213 N 
ATOM     22  C   UNL     1       3.612   0.429   1.084  0.00  0.00    +0.260 C 
ATOM     23  O   UNL     1       2.388   0.438   1.387  0.00  0.00    -0.269 OA
ATOM     24  O   UNL     1       6.556  -1.915   1.247  0.00  0.00    -0.250 OA
ATOM     25  H   UNL     1       4.221   3.705   0.109  0.00  0.00    +0.063 HD
BRANCH  21  26
ATOM     26  C   UNL     1       3.659  -2.068   1.365  0.00  0.00    +0.082 C 
ATOM     27  H   UNL     1       4.358  -2.899   1.594  0.00  0.00    +0.055 HD
ATOM     28  H   UNL     1       2.957  -1.993   2.223  0.00  0.00    +0.055 HD
BRANCH  26  29
ATOM     29  C   UNL     1       2.897  -2.401   0.121  0.00  0.00    +0.123 A 
ATOM     30  C   UNL     1       3.448  -2.777  -1.086  0.00  0.00    -0.019 A 
ATOM     31  C   UNL     1       2.381  -2.944  -1.942  0.00  0.00    -0.024 A 
ATOM     32  C   UNL     1       1.249  -2.659  -1.205  0.00  0.00    +0.092 A 
ATOM     33  O   UNL     1       1.589  -2.337   0.021  0.00  0.00    -0.466 OA
ATOM     34  H   UNL     1       4.497  -2.903  -1.318  0.00  0.00    +0.065 HD
ATOM     35  H   UNL     1       2.422  -3.232  -2.984  0.00  0.00    +0.065 HD
ATOM     36  H   UNL     1       0.233  -2.685  -1.570  0.00  0.00    +0.103 HD
ENDBRANCH  26  29
ENDBRANCH  21  26
ENDBRANCH   3  15
BRANCH   1  37
ATOM     37  C   UNL     1      -1.190   3.977   0.734  0.00  0.00    +0.057 C 
ATOM     38  H   UNL     1      -1.097   5.080   0.830  0.00  0.00    +0.053 HD
ATOM     39  H   UNL     1      -2.050   3.787   0.061  0.00  0.00    +0.053 HD
BRANCH  37  40
ATOM     40  C   UNL     1      -1.464   3.374   2.120  0.00  0.00    +0.107 C 
ATOM     41  H   UNL     1      -0.782   3.853   2.854  0.00  0.00    +0.071 HD
ATOM     42  H   UNL     1      -2.502   3.594   2.448  0.00  0.00    +0.071 HD
BRANCH  40  43
ATOM     43  O   UNL     1      -1.212   1.967   2.141  0.00  0.00    -0.490 OA
BRANCH  43  47
ATOM     44  C   UNL     1      -3.334  -1.005  -0.013  0.00  0.00    -0.042 A 
ATOM     45  C   UNL     1      -2.058  -1.249   0.541  0.00  0.00    -0.055 A 
ATOM     46  C   UNL     1      -1.385  -0.263   1.266  0.00  0.00    -0.020 A 
ATOM     47  C   UNL     1      -1.955   0.998   1.450  0.00  0.00    +0.121 A 
ATOM     48  C   UNL     1      -3.232   1.253   0.928  0.00  0.00    -0.020 A 
ATOM     49  C   UNL     1      -3.911   0.269   0.205  0.00  0.00    -0.055 A 
ATOM     50  H   UNL     1      -1.569  -2.205   0.411  0.00  0.00    +0.062 HD
ATOM     51  H   UNL     1      -0.401  -0.474   1.666  0.00  0.00    +0.065 HD
ATOM     52  H   UNL     1      -3.709   2.212   1.067  0.00  0.00    +0.065 HD
ATOM     53  H   UNL     1      -4.886   0.528  -0.180  0.00  0.00    +0.062 HD
BRANCH  44  54
ATOM     54  C   UNL     1      -4.040  -2.114  -0.820  0.00  0.00    -0.013 C 
BRANCH  54  55
ATOM     55  C   UNL     1      -3.164  -2.507  -2.029  0.00  0.00    -0.056 C 
ATOM     56  H   UNL     1      -3.679  -3.264  -2.660  0.00  0.00    +0.024 HD
ATOM     57  H   UNL     1      -2.199  -2.948  -1.706  0.00  0.00    +0.024 HD
ATOM     58  H   UNL     1      -2.950  -1.615  -2.658  0.00  0.00    +0.024 HD
ENDBRANCH  54  55
BRANCH  54  59
ATOM     59  C   UNL     1      -4.254  -3.349   0.081  0.00  0.00    -0.056 C 
ATOM     60  H   UNL     1      -3.288  -3.778   0.422  0.00  0.00    +0.024 HD
ATOM     61  H   UNL     1      -4.849  -3.074   0.979  0.00  0.00    +0.024 HD
ATOM     62  H   UNL     1      -4.798  -4.148  -0.468  0.00  0.00    +0.024 HD
ENDBRANCH  54  59
BRANCH  54  63
ATOM     63  C   UNL     1      -5.423  -1.682  -1.363  0.00  0.00    -0.056 C 
ATOM     64  H   UNL     1      -6.112  -1.422  -0.531  0.00  0.00    +0.024 HD
ATOM     65  H   UNL     1      -5.895  -2.507  -1.940  0.00  0.00    +0.024 HD
ATOM     66  H   UNL     1      -5.326  -0.811  -2.047  0.00  0.00    +0.024 HD
ENDBRANCH  54  63
ENDBRANCH  44  54
ENDBRANCH  43  47
ENDBRANCH  40  43
ENDBRANCH  37  40
ENDBRANCH   1  37
TORSDOF 11
