REMARK  Name = 
REMARK  11 active torsions:
REMARK  status: ('A' for Active; 'I' for Inactive)
REMARK    1  A    between atoms: C_1  and  C_2
REMARK    2  A    between atoms: C_2  and  C_3
REMARK    3  A    between atoms: C_2  and  C_4
REMARK    4  A    between atoms: C_2  and  C_5
REMARK    5  A    between atoms: C_8  and  O_11
REMARK    6  A    between atoms: O_11  and  C_12
REMARK    7  A    between atoms: C_12  and  C_13
REMARK    8  A    between atoms: C_13  and  N_14
REMARK    9  A    between atoms: C_16  and  C_23
REMARK   10  A    between atoms: N_29  and  C_32
REMARK   11  A    between atoms: C_32  and  C_33
REMARK                            x       y       z     vdW  Elec       q    Type
REMARK                         _______ _______ _______ _____ _____    ______ ____
ROOT
ATOM      1  N   UNL     1       0.430  -0.681   0.411  0.00  0.00    -0.343 N 
ATOM      2  C   UNL     1       0.756   0.600   0.115  0.00  0.00    +0.013 A 
ATOM      3  C   UNL     1       2.113   0.811   0.326  0.00  0.00    +0.001 A 
ATOM      4  C   UNL     1       2.610  -0.382   0.823  0.00  0.00    +0.007 A 
ATOM      5  C   UNL     1       1.561  -1.270   0.855  0.00  0.00    +0.050 A 
ATOM      6  C   UNL     1       1.721  -2.568   1.349  0.00  0.00    -0.038 A 
ATOM      7  C   UNL     1       2.993  -2.945   1.817  0.00  0.00    -0.060 A 
ATOM      8  C   UNL     1       4.063  -2.026   1.799  0.00  0.00    -0.061 A 
ATOM      9  C   UNL     1       3.876  -0.724   1.304  0.00  0.00    -0.052 A 
ATOM     10  H   UNL     1       0.047   1.346  -0.221  0.00  0.00    +0.082 HD
ATOM     11  H   UNL     1       0.896  -3.267   1.385  0.00  0.00    +0.064 HD
ATOM     12  H   UNL     1       3.148  -3.942   2.206  0.00  0.00    +0.062 HD
ATOM     13  H   UNL     1       5.033  -2.322   2.177  0.00  0.00    +0.062 HD
ATOM     14  H   UNL     1       4.691  -0.011   1.307  0.00  0.00    +0.062 HD
ENDROOT
BRANCH   3  15
ATOM     15  C   UNL     1       2.810   2.104   0.206  0.00  0.00    -0.035 C 
ATOM     16  C   UNL     1       3.988   2.284  -0.429  0.00  0.00    +0.102 C 
ATOM     17  C   UNL     1       4.720   3.561  -0.304  0.00  0.00    +0.276 C 
ATOM     18  O   UNL     1       4.193   4.560   0.255  0.00  0.00    -0.268 OA
ATOM     19  N   UNL     1       6.060   3.664  -0.795  0.00  0.00    -0.123 NA
ATOM     20  C   UNL     1       6.675   2.697  -1.409  0.00  0.00    +0.336 C 
ATOM     21  N   UNL     1       6.011   1.440  -1.674  0.00  0.00    -0.213 N 
ATOM     22  C   UNL     1       4.638   1.261  -1.279  0.00  0.00    +0.260 C 
ATOM     23  O   UNL     1       3.989   0.264  -1.701  0.00  0.00    -0.269 OA
ATOM     24  O   UNL     1       7.989   2.896  -1.815  0.00  0.00    -0.250 OA
ATOM     25  H   UNL     1       2.340   2.942   0.705  0.00  0.00    +0.063 HD
BRANCH  21  26
ATOM     26  C   UNL     1       6.743   0.321  -2.283  0.00  0.00    +0.082 C 
ATOM     27  H   UNL     1       6.139  -0.120  -3.106  0.00  0.00    +0.055 HD
ATOM     28  H   UNL     1       7.699   0.654  -2.736  0.00  0.00    +0.055 HD
BRANCH  26  29
ATOM     29  C   UNL     1       7.026  -0.726  -1.252  0.00  0.00    +0.123 A 
ATOM     30  C   UNL     1       7.865  -0.582  -0.166  0.00  0.00    -0.019 A 
ATOM     31  C   UNL     1       7.797  -1.779   0.514  0.00  0.00    -0.024 A 
ATOM     32  C   UNL     1       6.924  -2.576  -0.200  0.00  0.00    +0.092 A 
ATOM     33  O   UNL     1       6.480  -1.919  -1.246  0.00  0.00    -0.466 OA
ATOM     34  H   UNL     1       8.446   0.290   0.103  0.00  0.00    +0.065 HD
ATOM     35  H   UNL     1       8.318  -2.040   1.425  0.00  0.00    +0.065 HD
ATOM     36  H   UNL     1       6.636  -3.588   0.054  0.00  0.00    +0.103 HD
ENDBRANCH  26  29
ENDBRANCH  21  26
ENDBRANCH   3  15
BRANCH   1  37
ATOM     37  C   UNL     1      -0.919  -1.245   0.376  0.00  0.00    +0.057 C 
ATOM     38  H   UNL     1      -1.519  -0.720  -0.397  0.00  0.00    +0.053 HD
ATOM     39  H   UNL     1      -0.876  -2.316   0.084  0.00  0.00    +0.053 HD
BRANCH  37  40
ATOM     40  C   UNL     1      -1.585  -1.109   1.746  0.00  0.00    +0.107 C 
ATOM     41  H   UNL     1      -1.577  -0.054   2.095  0.00  0.00    +0.071 HD
ATOM     42  H   UNL     1      -1.007  -1.704   2.484  0.00  0.00    +0.071 HD
BRANCH  40  43
ATOM     43  O   UNL     1      -2.918  -1.619   1.712  0.00  0.00    -0.490 OA
BRANCH  43  47
ATOM     44  C   UNL     1      -6.328   0.241  -0.001  0.00  0.00    -0.042 A 
ATOM     45  C   UNL     1      -6.375  -1.063   0.539  0.00  0.00    -0.055 A 
ATOM     46  C   UNL     1      -5.241  -1.655   1.098  0.00  0.00    -0.020 A 
ATOM     47  C   UNL     1      -4.024  -0.971   1.136  0.00  0.00    +0.121 A 
ATOM     48  C   UNL     1      -3.958   0.329   0.609  0.00  0.00    -0.020 A 
ATOM     49  C   UNL     1      -5.091   0.926   0.048  0.00  0.00    -0.055 A 
ATOM     50  H   UNL     1      -7.293  -1.634   0.531  0.00  0.00    +0.062 HD
ATOM     51  H   UNL     1      -5.308  -2.657   1.504  0.00  0.00    +0.065 HD
ATOM     52  H   UNL     1      -3.037   0.895   0.626  0.00  0.00    +0.065 HD
ATOM     53  H   UNL     1      -4.976   1.927  -0.342  0.00  0.00    +0.062 HD
BRANCH  44  54
ATOM     54  C   UNL     1      -7.602   0.861  -0.611  0.00  0.00    -0.013 C 
BRANCH  54  55
ATOM     55  C   UNL     1      -8.704   0.938   0.467  0.00  0.00    -0.056 C 
ATOM     56  H   UNL     1      -9.620   1.420   0.062  0.00  0.00    +0.024 HD
ATOM     57  H   UNL     1      -8.352   1.532   1.338  0.00  0.00    +0.024 HD
ATOM     58  H   UNL     1      -8.994  -0.071   0.829  0.00  0.00    +0.024 HD
ENDBRANCH  54  55
BRANCH  54  59
ATOM     59  C   UNL     1      -8.091  -0.018  -1.783  0.00  0.00    -0.056 C 
ATOM     60  H   UNL     1      -7.293  -0.119  -2.550  0.00  0.00    +0.024 HD
ATOM     61  H   UNL     1      -8.376  -1.035  -1.440  0.00  0.00    +0.024 HD
ATOM     62  H   UNL     1      -8.986   0.432  -2.267  0.00  0.00    +0.024 HD
ENDBRANCH  54  59
BRANCH  54  63
ATOM     63  C   UNL     1      -7.380   2.291  -1.159  0.00  0.00    -0.056 C 
ATOM     64  H   UNL     1      -7.059   2.981  -0.347  0.00  0.00    +0.024 HD
ATOM     65  H   UNL     1      -6.616   2.292  -1.966  0.00  0.00    +0.024 HD
ATOM     66  H   UNL     1      -8.320   2.699  -1.589  0.00  0.00    +0.024 HD
ENDBRANCH  54  63
ENDBRANCH  44  54
ENDBRANCH  43  47
ENDBRANCH  40  43
ENDBRANCH  37  40
ENDBRANCH   1  37
TORSDOF 11
