REMARK  Name = 
REMARK  11 active torsions:
REMARK  status: ('A' for Active; 'I' for Inactive)
REMARK    1  A    between atoms: C_1  and  C_2
REMARK    2  A    between atoms: C_2  and  C_3
REMARK    3  A    between atoms: C_2  and  C_4
REMARK    4  A    between atoms: C_2  and  C_5
REMARK    5  A    between atoms: C_8  and  O_11
REMARK    6  A    between atoms: O_11  and  C_12
REMARK    7  A    between atoms: C_12  and  C_13
REMARK    8  A    between atoms: C_13  and  N_14
REMARK    9  A    between atoms: C_16  and  C_23
REMARK   10  A    between atoms: N_29  and  C_32
REMARK   11  A    between atoms: C_32  and  C_33
REMARK                            x       y       z     vdW  Elec       q    Type
REMARK                         _______ _______ _______ _____ _____    ______ ____
ROOT
ATOM      1  N   UNL     1      -0.214   0.729  -2.061  0.00  0.00    -0.343 N 
ATOM      2  C   UNL     1      -0.685   1.546  -1.089  0.00  0.00    +0.013 A 
ATOM      3  C   UNL     1      -2.033   1.811  -1.295  0.00  0.00    +0.001 A 
ATOM      4  C   UNL     1      -2.376   1.146  -2.460  0.00  0.00    +0.007 A 
ATOM      5  C   UNL     1      -1.252   0.483  -2.889  0.00  0.00    +0.050 A 
ATOM      6  C   UNL     1      -1.266  -0.300  -4.047  0.00  0.00    -0.038 A 
ATOM      7  C   UNL     1      -2.466  -0.379  -4.776  0.00  0.00    -0.060 A 
ATOM      8  C   UNL     1      -3.613   0.322  -4.345  0.00  0.00    -0.061 A 
ATOM      9  C   UNL     1      -3.574   1.101  -3.176  0.00  0.00    -0.052 A 
ATOM     10  H   UNL     1      -0.087   1.924  -0.268  0.00  0.00    +0.082 HD
ATOM     11  H   UNL     1      -0.384  -0.828  -4.385  0.00  0.00    +0.064 HD
ATOM     12  H   UNL     1      -2.508  -0.975  -5.678  0.00  0.00    +0.062 HD
ATOM     13  H   UNL     1      -4.528   0.260  -4.919  0.00  0.00    +0.062 HD
ATOM     14  H   UNL     1      -4.449   1.645  -2.845  0.00  0.00    +0.062 HD
ENDROOT
BRANCH   3  15
ATOM     15  C   UNL     1      -2.863   2.725  -0.491  0.00  0.00    -0.035 C 
ATOM     16  C   UNL     1      -4.071   2.417   0.030  0.00  0.00    +0.102 C 
ATOM     17  C   UNL     1      -4.890   3.462   0.680  0.00  0.00    +0.276 C 
ATOM     18  O   UNL     1      -4.449   4.633   0.830  0.00  0.00    -0.268 OA
ATOM     19  N   UNL     1      -6.210   3.154   1.138  0.00  0.00    -0.123 NA
ATOM     20  C   UNL     1      -6.752   1.978   1.023  0.00  0.00    +0.336 C 
ATOM     21  N   UNL     1      -6.031   0.879   0.425  0.00  0.00    -0.213 N 
ATOM     22  C   UNL     1      -4.655   1.055   0.033  0.00  0.00    +0.260 C 
ATOM     23  O   UNL     1      -3.949   0.047  -0.244  0.00  0.00    -0.269 OA
ATOM     24  O   UNL     1      -8.046   1.790   1.497  0.00  0.00    -0.250 OA
ATOM     25  H   UNL     1      -2.452   3.715  -0.336  0.00  0.00    +0.063 HD
BRANCH  21  26
ATOM     26  C   UNL     1      -6.662  -0.444   0.332  0.00  0.00    +0.082 C 
ATOM     27  H   UNL     1      -6.246  -1.015  -0.527  0.00  0.00    +0.055 HD
ATOM     28  H   UNL     1      -7.752  -0.341   0.140  0.00  0.00    +0.055 HD
BRANCH  26  29
ATOM     29  C   UNL     1      -6.451  -1.204   1.603  0.00  0.00    +0.123 A 
ATOM     30  C   UNL     1      -5.426  -2.093   1.853  0.00  0.00    -0.019 A 
ATOM     31  C   UNL     1      -5.614  -2.519   3.150  0.00  0.00    -0.024 A 
ATOM     32  C   UNL     1      -6.738  -1.863   3.610  0.00  0.00    +0.092 A 
ATOM     33  O   UNL     1      -7.213  -1.083   2.665  0.00  0.00    -0.466 OA
ATOM     34  H   UNL     1      -4.635  -2.391   1.177  0.00  0.00    +0.065 HD
ATOM     35  H   UNL     1      -5.003  -3.224   3.698  0.00  0.00    +0.065 HD
ATOM     36  H   UNL     1      -7.173  -1.962   4.595  0.00  0.00    +0.103 HD
ENDBRANCH  26  29
ENDBRANCH  21  26
ENDBRANCH   3  15
BRANCH   1  37
ATOM     37  C   UNL     1       1.140   0.182  -2.134  0.00  0.00    +0.057 C 
ATOM     38  H   UNL     1       1.469   0.119  -3.193  0.00  0.00    +0.053 HD
ATOM     39  H   UNL     1       1.844   0.865  -1.612  0.00  0.00    +0.053 HD
BRANCH  37  40
ATOM     40  C   UNL     1       1.182  -1.208  -1.496  0.00  0.00    +0.107 C 
ATOM     41  H   UNL     1       0.530  -1.888  -2.083  0.00  0.00    +0.071 HD
ATOM     42  H   UNL     1       0.786  -1.187  -0.458  0.00  0.00    +0.071 HD
BRANCH  40  43
ATOM     43  O   UNL     1       2.509  -1.733  -1.519  0.00  0.00    -0.490 OA
BRANCH  43  47
ATOM     44  C   UNL     1       5.749  -0.619   0.987  0.00  0.00    -0.042 A 
ATOM     45  C   UNL     1       5.904  -1.530  -0.080  0.00  0.00    -0.055 A 
ATOM     46  C   UNL     1       4.824  -1.883  -0.892  0.00  0.00    -0.020 A 
ATOM     47  C   UNL     1       3.557  -1.340  -0.670  0.00  0.00    +0.121 A 
ATOM     48  C   UNL     1       3.382  -0.434   0.390  0.00  0.00    -0.020 A 
ATOM     49  C   UNL     1       4.460  -0.078   1.205  0.00  0.00    -0.055 A 
ATOM     50  H   UNL     1       6.865  -1.977  -0.293  0.00  0.00    +0.062 HD
ATOM     51  H   UNL     1       4.974  -2.585  -1.703  0.00  0.00    +0.065 HD
ATOM     52  H   UNL     1       2.416   0.003   0.600  0.00  0.00    +0.065 HD
ATOM     53  H   UNL     1       4.262   0.623   2.002  0.00  0.00    +0.062 HD
BRANCH  44  54
ATOM     54  C   UNL     1       6.967  -0.253   1.861  0.00  0.00    -0.013 C 
BRANCH  54  55
ATOM     55  C   UNL     1       7.521  -1.529   2.531  0.00  0.00    -0.056 C 
ATOM     56  H   UNL     1       6.731  -2.021   3.139  0.00  0.00    +0.024 HD
ATOM     57  H   UNL     1       7.888  -2.259   1.779  0.00  0.00    +0.024 HD
ATOM     58  H   UNL     1       8.375  -1.284   3.200  0.00  0.00    +0.024 HD
ENDBRANCH  54  55
BRANCH  54  59
ATOM     59  C   UNL     1       8.064   0.380   0.976  0.00  0.00    -0.056 C 
ATOM     60  H   UNL     1       7.668   1.276   0.452  0.00  0.00    +0.024 HD
ATOM     61  H   UNL     1       8.936   0.691   1.591  0.00  0.00    +0.024 HD
ATOM     62  H   UNL     1       8.435  -0.335   0.212  0.00  0.00    +0.024 HD
ENDBRANCH  54  59
BRANCH  54  63
ATOM     63  C   UNL     1       6.628   0.758   2.983  0.00  0.00    -0.056 C 
ATOM     64  H   UNL     1       5.865   0.340   3.675  0.00  0.00    +0.024 HD
ATOM     65  H   UNL     1       6.253   1.713   2.555  0.00  0.00    +0.024 HD
ATOM     66  H   UNL     1       7.531   0.995   3.586  0.00  0.00    +0.024 HD
ENDBRANCH  54  63
ENDBRANCH  44  54
ENDBRANCH  43  47
ENDBRANCH  40  43
ENDBRANCH  37  40
ENDBRANCH   1  37
TORSDOF 11
