REMARK  Name = 
REMARK  3 active torsions:
REMARK  status: ('A' for Active; 'I' for Inactive)
REMARK    1  A    between atoms: C_5  and  C_7
REMARK    2  A    between atoms: C_7  and  C_8
REMARK    3  A    between atoms: N_14  and  C_15
REMARK                            x       y       z     vdW  Elec       q    Type
REMARK                         _______ _______ _______ _____ _____    ______ ____
ROOT
ATOM      1  C   UNL     1      -1.192   0.302  -1.237  0.00  0.00    +0.134 A 
ATOM      2  C   UNL     1      -0.169   1.143  -0.776  0.00  0.00    +0.297 A 
ATOM      3  N   UNL     1       1.007   0.598  -0.375  0.00  0.00    -0.173 NA
ATOM      4  C   UNL     1       1.209  -0.745  -0.428  0.00  0.00    +0.242 A 
ATOM      5  N   UNL     1       0.208  -1.548  -0.873  0.00  0.00    -0.112 NA
ATOM      6  N   UNL     1      -0.957  -1.037  -1.270  0.00  0.00    -0.145 NA
ATOM      7  N   UNL     1       2.439  -1.326   0.025  0.00  0.00    -0.282 N 
ATOM      8  O   UNL     1      -0.335   2.522  -0.725  0.00  0.00    -0.264 OA
ATOM      9  H   UNL     1       2.438  -2.349   0.241  0.00  0.00    +0.155 HD
ENDROOT
BRANCH   7  10
ATOM     10  C   UNL     1       3.632  -0.575   0.308  0.00  0.00    +0.034 A 
ATOM     11  C   UNL     1       4.005   0.533  -0.474  0.00  0.00    -0.039 A 
ATOM     12  C   UNL     1       5.183   1.231  -0.193  0.00  0.00    -0.046 A 
ATOM     13  C   UNL     1       6.006   0.823   0.861  0.00  0.00    +0.018 A 
ATOM     14  C   UNL     1       5.655  -0.292   1.628  0.00  0.00    -0.046 A 
ATOM     15  C   UNL     1       4.478  -0.993   1.348  0.00  0.00    -0.039 A 
ATOM     16 BR   UNL     1       7.616   1.777   1.242  0.00  0.00    -0.050 Br
ATOM     17  H   UNL     1       3.402   0.844  -1.317  0.00  0.00    +0.064 HD
ATOM     18  H   UNL     1       5.460   2.084  -0.800  0.00  0.00    +0.063 HD
ATOM     19  H   UNL     1       6.294  -0.618   2.438  0.00  0.00    +0.063 HD
ATOM     20  H   UNL     1       4.218  -1.856   1.948  0.00  0.00    +0.064 HD
ENDBRANCH   7  10
BRANCH   1  21
ATOM     21  C   UNL     1      -2.523   0.830  -1.702  0.00  0.00    +0.023 C 
ATOM     22  H   UNL     1      -2.557   1.939  -1.685  0.00  0.00    +0.038 HD
ATOM     23  H   UNL     1      -2.663   0.540  -2.766  0.00  0.00    +0.038 HD
BRANCH  21  28
ATOM     24  C   UNL     1      -5.345  -1.440  -0.524  0.00  0.00    -0.061 A 
ATOM     25  C   UNL     1      -5.689  -0.866   0.701  0.00  0.00    -0.060 A 
ATOM     26  C   UNL     1      -5.011   0.267   1.157  0.00  0.00    -0.043 A 
ATOM     27  C   UNL     1      -3.987   0.836   0.390  0.00  0.00    +0.045 A 
ATOM     28  C   UNL     1      -3.642   0.268  -0.857  0.00  0.00    -0.023 A 
ATOM     29  C   UNL     1      -4.325  -0.880  -1.297  0.00  0.00    -0.057 A 
ATOM     30 CL   UNL     1      -3.161   2.254   1.027  0.00  0.00    -0.083 Cl
ATOM     31  H   UNL     1      -5.867  -2.321  -0.873  0.00  0.00    +0.062 HD
ATOM     32  H   UNL     1      -6.479  -1.301   1.299  0.00  0.00    +0.062 HD
ATOM     33  H   UNL     1      -5.282   0.701   2.111  0.00  0.00    +0.063 HD
ATOM     34  H   UNL     1      -4.066  -1.345  -2.241  0.00  0.00    +0.062 HD
ENDBRANCH  21  28
ENDBRANCH   1  21
TORSDOF 3
