REMARK  Name = 
REMARK  3 active torsions:
REMARK  status: ('A' for Active; 'I' for Inactive)
REMARK    1  A    between atoms: C_5  and  C_7
REMARK    2  A    between atoms: C_7  and  C_8
REMARK    3  A    between atoms: N_14  and  C_15
REMARK                            x       y       z     vdW  Elec       q    Type
REMARK                         _______ _______ _______ _____ _____    ______ ____
ROOT
ATOM      1  C   UNL     1      -1.154   1.315  -0.691  0.00  0.00    +0.134 A 
ATOM      2  C   UNL     1      -0.377   1.032   0.440  0.00  0.00    +0.297 A 
ATOM      3  N   UNL     1       0.861   0.501   0.280  0.00  0.00    -0.173 NA
ATOM      4  C   UNL     1       1.355   0.248  -0.961  0.00  0.00    +0.242 A 
ATOM      5  N   UNL     1       0.585   0.510  -2.048  0.00  0.00    -0.112 NA
ATOM      6  N   UNL     1      -0.636   1.031  -1.915  0.00  0.00    -0.145 NA
ATOM      7  N   UNL     1       2.652  -0.342  -1.133  0.00  0.00    -0.282 N 
ATOM      8  O   UNL     1      -0.853   1.286   1.721  0.00  0.00    -0.264 OA
ATOM      9  H   UNL     1       2.861  -0.784  -2.057  0.00  0.00    +0.155 HD
ENDROOT
BRANCH   7  10
ATOM     10  C   UNL     1       3.631  -0.462  -0.088  0.00  0.00    +0.034 A 
ATOM     11  C   UNL     1       4.480  -1.580  -0.066  0.00  0.00    -0.039 A 
ATOM     12  C   UNL     1       5.455  -1.708   0.928  0.00  0.00    -0.046 A 
ATOM     13  C   UNL     1       5.602  -0.713   1.899  0.00  0.00    +0.018 A 
ATOM     14  C   UNL     1       4.777   0.416   1.871  0.00  0.00    -0.046 A 
ATOM     15  C   UNL     1       3.800   0.546   0.878  0.00  0.00    -0.039 A 
ATOM     16 BR   UNL     1       6.936  -0.888   3.254  0.00  0.00    -0.050 Br
ATOM     17  H   UNL     1       4.378  -2.356  -0.813  0.00  0.00    +0.064 HD
ATOM     18  H   UNL     1       6.097  -2.579   0.941  0.00  0.00    +0.063 HD
ATOM     19  H   UNL     1       4.898   1.196   2.611  0.00  0.00    +0.063 HD
ATOM     20  H   UNL     1       3.198   1.445   0.853  0.00  0.00    +0.064 HD
ENDBRANCH   7  10
BRANCH   1  21
ATOM     21  C   UNL     1      -2.546   1.873  -0.585  0.00  0.00    +0.023 C 
ATOM     22  H   UNL     1      -2.605   2.587   0.266  0.00  0.00    +0.038 HD
ATOM     23  H   UNL     1      -2.783   2.470  -1.492  0.00  0.00    +0.038 HD
BRANCH  21  28
ATOM     24  C   UNL     1      -4.860  -0.650   1.082  0.00  0.00    -0.061 A 
ATOM     25  C   UNL     1      -5.374  -1.344  -0.014  0.00  0.00    -0.060 A 
ATOM     26  C   UNL     1      -4.983  -0.996  -1.308  0.00  0.00    -0.043 A 
ATOM     27  C   UNL     1      -4.074   0.050  -1.516  0.00  0.00    +0.045 A 
ATOM     28  C   UNL     1      -3.553   0.761  -0.411  0.00  0.00    -0.023 A 
ATOM     29  C   UNL     1      -3.954   0.395   0.887  0.00  0.00    -0.057 A 
ATOM     30 CL   UNL     1      -3.623   0.438  -3.173  0.00  0.00    -0.083 Cl
ATOM     31  H   UNL     1      -5.163  -0.922   2.085  0.00  0.00    +0.062 HD
ATOM     32  H   UNL     1      -6.076  -2.153   0.140  0.00  0.00    +0.062 HD
ATOM     33  H   UNL     1      -5.386  -1.542  -2.151  0.00  0.00    +0.063 HD
ATOM     34  H   UNL     1      -3.566   0.919   1.751  0.00  0.00    +0.062 HD
ENDBRANCH  21  28
ENDBRANCH   1  21
TORSDOF 3
