REMARK  Name = 
REMARK  3 active torsions:
REMARK  status: ('A' for Active; 'I' for Inactive)
REMARK    1  A    between atoms: C_5  and  C_7
REMARK    2  A    between atoms: C_7  and  C_8
REMARK    3  A    between atoms: N_14  and  C_15
REMARK                            x       y       z     vdW  Elec       q    Type
REMARK                         _______ _______ _______ _____ _____    ______ ____
ROOT
ATOM      1  C   UNL     1      -1.179   1.159   1.007  0.00  0.00    +0.134 A 
ATOM      2  C   UNL     1      -0.290   0.083   1.131  0.00  0.00    +0.297 A 
ATOM      3  N   UNL     1       0.900   0.127   0.483  0.00  0.00    -0.173 NA
ATOM      4  C   UNL     1       1.241   1.200  -0.278  0.00  0.00    +0.242 A 
ATOM      5  N   UNL     1       0.361   2.228  -0.405  0.00  0.00    -0.112 NA
ATOM      6  N   UNL     1      -0.815   2.206   0.222  0.00  0.00    -0.145 NA
ATOM      7  N   UNL     1       2.485   1.237  -0.990  0.00  0.00    -0.282 N 
ATOM      8  O   UNL     1      -0.607  -1.026   1.908  0.00  0.00    -0.264 OA
ATOM      9  H   UNL     1       2.571   1.921  -1.776  0.00  0.00    +0.155 HD
ENDROOT
BRANCH   7  10
ATOM     10  C   UNL     1       3.572   0.323  -0.767  0.00  0.00    +0.034 A 
ATOM     11  C   UNL     1       4.375  -0.070  -1.849  0.00  0.00    -0.039 A 
ATOM     12  C   UNL     1       5.451  -0.940  -1.653  0.00  0.00    -0.046 A 
ATOM     13  C   UNL     1       5.745  -1.414  -0.371  0.00  0.00    +0.018 A 
ATOM     14  C   UNL     1       4.966  -1.009   0.717  0.00  0.00    -0.046 A 
ATOM     15  C   UNL     1       3.889  -0.139   0.524  0.00  0.00    -0.039 A 
ATOM     16 BR   UNL     1       7.218  -2.600  -0.104  0.00  0.00    -0.050 Br
ATOM     17  H   UNL     1       4.159   0.292  -2.847  0.00  0.00    +0.064 HD
ATOM     18  H   UNL     1       6.057  -1.244  -2.497  0.00  0.00    +0.063 HD
ATOM     19  H   UNL     1       5.201  -1.360   1.714  0.00  0.00    +0.063 HD
ATOM     20  H   UNL     1       3.322   0.191   1.385  0.00  0.00    +0.064 HD
ENDBRANCH   7  10
BRANCH   1  21
ATOM     21  C   UNL     1      -2.528   1.161   1.672  0.00  0.00    +0.023 C 
ATOM     22  H   UNL     1      -2.843   2.205   1.879  0.00  0.00    +0.038 HD
ATOM     23  H   UNL     1      -2.462   0.666   2.666  0.00  0.00    +0.038 HD
BRANCH  21  28
ATOM     24  C   UNL     1      -4.731  -1.577   0.206  0.00  0.00    -0.061 A 
ATOM     25  C   UNL     1      -5.393  -0.902  -0.820  0.00  0.00    -0.060 A 
ATOM     26  C   UNL     1      -5.138   0.452  -1.044  0.00  0.00    -0.043 A 
ATOM     27  C   UNL     1      -4.220   1.143  -0.242  0.00  0.00    +0.045 A 
ATOM     28  C   UNL     1      -3.550   0.466   0.804  0.00  0.00    -0.023 A 
ATOM     29  C   UNL     1      -3.814  -0.899   1.012  0.00  0.00    -0.057 A 
ATOM     30 CL   UNL     1      -3.946   2.849  -0.577  0.00  0.00    -0.083 Cl
ATOM     31  H   UNL     1      -4.928  -2.627   0.377  0.00  0.00    +0.062 HD
ATOM     32  H   UNL     1      -6.103  -1.429  -1.444  0.00  0.00    +0.062 HD
ATOM     33  H   UNL     1      -5.656   0.967  -1.843  0.00  0.00    +0.063 HD
ATOM     34  H   UNL     1      -3.310  -1.442   1.802  0.00  0.00    +0.062 HD
ENDBRANCH  21  28
ENDBRANCH   1  21
TORSDOF 3
