REMARK  Name = 
REMARK  3 active torsions:
REMARK  status: ('A' for Active; 'I' for Inactive)
REMARK    1  A    between atoms: C_5  and  C_7
REMARK    2  A    between atoms: C_7  and  C_8
REMARK    3  A    between atoms: N_14  and  C_15
REMARK                            x       y       z     vdW  Elec       q    Type
REMARK                         _______ _______ _______ _____ _____    ______ ____
ROOT
ATOM      1  C   UNL     1       1.391  -1.621  -0.138  0.00  0.00    +0.134 A 
ATOM      2  C   UNL     1       0.846  -2.431   0.869  0.00  0.00    +0.297 A 
ATOM      3  N   UNL     1      -0.475  -2.329   1.160  0.00  0.00    -0.173 NA
ATOM      4  C   UNL     1      -1.271  -1.453   0.495  0.00  0.00    +0.242 A 
ATOM      5  N   UNL     1      -0.735  -0.690  -0.495  0.00  0.00    -0.112 NA
ATOM      6  N   UNL     1       0.560  -0.772  -0.799  0.00  0.00    -0.145 NA
ATOM      7  N   UNL     1      -2.670  -1.388   0.804  0.00  0.00    -0.282 N 
ATOM      8  O   UNL     1       1.631  -3.339   1.569  0.00  0.00    -0.264 OA
ATOM      9  H   UNL     1      -3.084  -2.185   1.339  0.00  0.00    +0.155 HD
ENDROOT
BRANCH   7  10
ATOM     10  C   UNL     1      -3.554  -0.355   0.336  0.00  0.00    +0.034 A 
ATOM     11  C   UNL     1      -3.126   0.981   0.221  0.00  0.00    -0.039 A 
ATOM     12  C   UNL     1      -4.013   1.971  -0.213  0.00  0.00    -0.046 A 
ATOM     13  C   UNL     1      -5.336   1.642  -0.521  0.00  0.00    +0.018 A 
ATOM     14  C   UNL     1      -5.775   0.321  -0.386  0.00  0.00    -0.046 A 
ATOM     15  C   UNL     1      -4.891  -0.671   0.048  0.00  0.00    -0.039 A 
ATOM     16 BR   UNL     1      -6.546   2.996  -1.111  0.00  0.00    -0.050 Br
ATOM     17  H   UNL     1      -2.117   1.264   0.489  0.00  0.00    +0.064 HD
ATOM     18  H   UNL     1      -3.673   2.995  -0.300  0.00  0.00    +0.063 HD
ATOM     19  H   UNL     1      -6.801   0.063  -0.615  0.00  0.00    +0.063 HD
ATOM     20  H   UNL     1      -5.243  -1.690   0.151  0.00  0.00    +0.064 HD
ENDBRANCH   7  10
BRANCH   1  21
ATOM     21  C   UNL     1       2.846  -1.677  -0.521  0.00  0.00    +0.023 C 
ATOM     22  H   UNL     1       3.395  -2.452   0.054  0.00  0.00    +0.038 HD
ATOM     23  H   UNL     1       2.917  -1.984  -1.587  0.00  0.00    +0.038 HD
BRANCH  21  28
ATOM     24  C   UNL     1       4.174   1.817  -1.248  0.00  0.00    -0.061 A 
ATOM     25  C   UNL     1       4.642   2.217   0.004  0.00  0.00    -0.060 A 
ATOM     26  C   UNL     1       4.536   1.356   1.098  0.00  0.00    -0.043 A 
ATOM     27  C   UNL     1       3.963   0.087   0.948  0.00  0.00    +0.045 A 
ATOM     28  C   UNL     1       3.498  -0.330  -0.320  0.00  0.00    -0.023 A 
ATOM     29  C   UNL     1       3.601   0.553  -1.410  0.00  0.00    -0.057 A 
ATOM     30 CL   UNL     1       3.843  -0.945   2.368  0.00  0.00    -0.083 Cl
ATOM     31  H   UNL     1       4.251   2.488  -2.094  0.00  0.00    +0.062 HD
ATOM     32  H   UNL     1       5.084   3.197   0.128  0.00  0.00    +0.062 HD
ATOM     33  H   UNL     1       4.896   1.679   2.067  0.00  0.00    +0.063 HD
ATOM     34  H   UNL     1       3.235   0.263  -2.388  0.00  0.00    +0.062 HD
ENDBRANCH  21  28
ENDBRANCH   1  21
TORSDOF 3
