REMARK  Name = 
REMARK  3 active torsions:
REMARK  status: ('A' for Active; 'I' for Inactive)
REMARK    1  A    between atoms: C_5  and  C_7
REMARK    2  A    between atoms: C_7  and  C_8
REMARK    3  A    between atoms: N_14  and  C_15
REMARK                            x       y       z     vdW  Elec       q    Type
REMARK                         _______ _______ _______ _____ _____    ______ ____
ROOT
ATOM      1  C   UNL     1       1.206   1.177   0.862  0.00  0.00    +0.134 A 
ATOM      2  C   UNL     1       0.890   0.597   2.098  0.00  0.00    +0.297 A 
ATOM      3  N   UNL     1      -0.326   0.020   2.269  0.00  0.00    -0.173 NA
ATOM      4  C   UNL     1      -1.236   0.002   1.262  0.00  0.00    +0.242 A 
ATOM      5  N   UNL     1      -0.909   0.550   0.062  0.00  0.00    -0.112 NA
ATOM      6  N   UNL     1       0.279   1.123  -0.130  0.00  0.00    -0.145 NA
ATOM      7  N   UNL     1      -2.502  -0.644   1.460  0.00  0.00    -0.282 N 
ATOM      8  O   UNL     1       1.799   0.605   3.149  0.00  0.00    -0.264 OA
ATOM      9  H   UNL     1      -2.589  -1.296   2.273  0.00  0.00    +0.155 HD
ENDROOT
BRANCH   7  10
ATOM     10  C   UNL     1      -3.614  -0.539   0.555  0.00  0.00    +0.034 A 
ATOM     11  C   UNL     1      -4.467  -1.640   0.381  0.00  0.00    -0.039 A 
ATOM     12  C   UNL     1      -5.568  -1.555  -0.476  0.00  0.00    -0.046 A 
ATOM     13  C   UNL     1      -5.836  -0.363  -1.156  0.00  0.00    +0.018 A 
ATOM     14  C   UNL     1      -5.007   0.747  -0.971  0.00  0.00    -0.046 A 
ATOM     15  C   UNL     1      -3.904   0.664  -0.114  0.00  0.00    -0.039 A 
ATOM     16 BR   UNL     1      -7.342  -0.247  -2.325  0.00  0.00    -0.050 Br
ATOM     17  H   UNL     1      -4.271  -2.568   0.904  0.00  0.00    +0.064 HD
ATOM     18  H   UNL     1      -6.212  -2.414  -0.610  0.00  0.00    +0.063 HD
ATOM     19  H   UNL     1      -5.221   1.677  -1.482  0.00  0.00    +0.063 HD
ATOM     20  H   UNL     1      -3.297   1.546   0.043  0.00  0.00    +0.064 HD
ENDBRANCH   7  10
BRANCH   1  21
ATOM     21  C   UNL     1       2.546   1.805   0.593  0.00  0.00    +0.023 C 
ATOM     22  H   UNL     1       2.917   2.315   1.509  0.00  0.00    +0.038 HD
ATOM     23  H   UNL     1       2.441   2.603  -0.171  0.00  0.00    +0.038 HD
BRANCH  21  28
ATOM     24  C   UNL     1       5.285  -0.839   0.686  0.00  0.00    -0.061 A 
ATOM     25  C   UNL     1       5.360  -1.229  -0.651  0.00  0.00    -0.060 A 
ATOM     26  C   UNL     1       4.529  -0.633  -1.601  0.00  0.00    -0.043 A 
ATOM     27  C   UNL     1       3.616   0.359  -1.221  0.00  0.00    +0.045 A 
ATOM     28  C   UNL     1       3.538   0.764   0.132  0.00  0.00    -0.023 A 
ATOM     29  C   UNL     1       4.378   0.149   1.077  0.00  0.00    -0.057 A 
ATOM     30 CL   UNL     1       2.598   1.070  -2.469  0.00  0.00    -0.083 Cl
ATOM     31  H   UNL     1       5.928  -1.304   1.421  0.00  0.00    +0.062 HD
ATOM     32  H   UNL     1       6.063  -1.996  -0.953  0.00  0.00    +0.062 HD
ATOM     33  H   UNL     1       4.595  -0.944  -2.636  0.00  0.00    +0.063 HD
ATOM     34  H   UNL     1       4.334   0.436   2.120  0.00  0.00    +0.062 HD
ENDBRANCH  21  28
ENDBRANCH   1  21
TORSDOF 3
