REMARK  Name = 
REMARK  3 active torsions:
REMARK  status: ('A' for Active; 'I' for Inactive)
REMARK    1  A    between atoms: C_5  and  C_7
REMARK    2  A    between atoms: C_7  and  C_8
REMARK    3  A    between atoms: N_14  and  C_15
REMARK                            x       y       z     vdW  Elec       q    Type
REMARK                         _______ _______ _______ _____ _____    ______ ____
ROOT
ATOM      1  C   UNL     1      -1.280   0.158  -1.353  0.00  0.00    +0.134 A 
ATOM      2  C   UNL     1      -0.372   1.161  -0.980  0.00  0.00    +0.297 A 
ATOM      3  N   UNL     1       0.918   0.827  -0.732  0.00  0.00    -0.173 NA
ATOM      4  C   UNL     1       1.339  -0.461  -0.837  0.00  0.00    +0.242 A 
ATOM      5  N   UNL     1       0.456  -1.418  -1.221  0.00  0.00    -0.112 NA
ATOM      6  N   UNL     1      -0.818  -1.115  -1.470  0.00  0.00    -0.145 NA
ATOM      7  N   UNL     1       2.711  -0.811  -0.603  0.00  0.00    -0.282 N 
ATOM      8  O   UNL     1      -0.769   2.487  -0.865  0.00  0.00    -0.264 OA
ATOM      9  H   UNL     1       3.046  -1.727  -0.981  0.00  0.00    +0.155 HD
ENDROOT
BRANCH   7  10
ATOM     10  C   UNL     1       3.673   0.058   0.017  0.00  0.00    +0.034 A 
ATOM     11  C   UNL     1       3.313   0.915   1.074  0.00  0.00    -0.039 A 
ATOM     12  C   UNL     1       4.274   1.733   1.677  0.00  0.00    -0.046 A 
ATOM     13  C   UNL     1       5.602   1.693   1.243  0.00  0.00    +0.018 A 
ATOM     14  C   UNL     1       5.972   0.827   0.209  0.00  0.00    -0.046 A 
ATOM     15  C   UNL     1       5.014   0.007  -0.395  0.00  0.00    -0.039 A 
ATOM     16 BR   UNL     1       6.913   2.809   2.070  0.00  0.00    -0.050 Br
ATOM     17  H   UNL     1       2.299   0.934   1.451  0.00  0.00    +0.064 HD
ATOM     18  H   UNL     1       3.987   2.389   2.488  0.00  0.00    +0.063 HD
ATOM     19  H   UNL     1       7.001   0.786  -0.124  0.00  0.00    +0.063 HD
ATOM     20  H   UNL     1       5.313  -0.660  -1.193  0.00  0.00    +0.064 HD
ENDBRANCH   7  10
BRANCH   1  21
ATOM     21  C   UNL     1      -2.728   0.449  -1.646  0.00  0.00    +0.023 C 
ATOM     22  H   UNL     1      -2.955   1.533  -1.577  0.00  0.00    +0.038 HD
ATOM     23  H   UNL     1      -2.937   0.162  -2.700  0.00  0.00    +0.038 HD
BRANCH  21  28
ATOM     24  C   UNL     1      -4.956  -2.312  -0.262  0.00  0.00    -0.061 A 
ATOM     25  C   UNL     1      -5.244  -1.839   1.019  0.00  0.00    -0.060 A 
ATOM     26  C   UNL     1      -4.722  -0.617   1.447  0.00  0.00    -0.043 A 
ATOM     27  C   UNL     1      -3.910   0.143   0.596  0.00  0.00    +0.045 A 
ATOM     28  C   UNL     1      -3.624  -0.323  -0.707  0.00  0.00    -0.023 A 
ATOM     29  C   UNL     1      -4.147  -1.562  -1.120  0.00  0.00    -0.057 A 
ATOM     30 CL   UNL     1      -3.269   1.667   1.200  0.00  0.00    -0.083 Cl
ATOM     31  H   UNL     1      -5.357  -3.262  -0.590  0.00  0.00    +0.062 HD
ATOM     32  H   UNL     1      -5.870  -2.422   1.682  0.00  0.00    +0.062 HD
ATOM     33  H   UNL     1      -4.946  -0.262   2.445  0.00  0.00    +0.063 HD
ATOM     34  H   UNL     1      -3.927  -1.949  -2.107  0.00  0.00    +0.062 HD
ENDBRANCH  21  28
ENDBRANCH   1  21
TORSDOF 3
