REMARK  Name = 
REMARK  3 active torsions:
REMARK  status: ('A' for Active; 'I' for Inactive)
REMARK    1  A    between atoms: C_5  and  C_7
REMARK    2  A    between atoms: C_7  and  C_8
REMARK    3  A    between atoms: N_14  and  C_15
REMARK                            x       y       z     vdW  Elec       q    Type
REMARK                         _______ _______ _______ _____ _____    ______ ____
ROOT
ATOM      1  C   UNL     1      -1.212  -1.065   1.030  0.00  0.00    +0.134 A 
ATOM      2  C   UNL     1      -0.961  -0.094   2.009  0.00  0.00    +0.297 A 
ATOM      3  N   UNL     1       0.263   0.486   2.072  0.00  0.00    -0.173 NA
ATOM      4  C   UNL     1       1.240   0.147   1.193  0.00  0.00    +0.242 A 
ATOM      5  N   UNL     1       0.987  -0.803   0.253  0.00  0.00    -0.112 NA
ATOM      6  N   UNL     1      -0.209  -1.386   0.171  0.00  0.00    -0.145 NA
ATOM      7  N   UNL     1       2.536   0.753   1.301  0.00  0.00    -0.282 N 
ATOM      8  O   UNL     1      -1.944   0.280   2.918  0.00  0.00    -0.264 OA
ATOM      9  H   UNL     1       2.770   1.234   2.199  0.00  0.00    +0.155 HD
ENDROOT
BRANCH   7  10
ATOM     10  C   UNL     1       3.563   0.650   0.300  0.00  0.00    +0.034 A 
ATOM     11  C   UNL     1       4.909   0.607   0.697  0.00  0.00    -0.039 A 
ATOM     12  C   UNL     1       5.926   0.529  -0.259  0.00  0.00    -0.046 A 
ATOM     13  C   UNL     1       5.610   0.510  -1.621  0.00  0.00    +0.018 A 
ATOM     14  C   UNL     1       4.273   0.578  -2.026  0.00  0.00    -0.046 A 
ATOM     15  C   UNL     1       3.253   0.655  -1.073  0.00  0.00    -0.039 A 
ATOM     16 BR   UNL     1       7.001   0.408  -2.925  0.00  0.00    -0.050 Br
ATOM     17  H   UNL     1       5.167   0.622   1.748  0.00  0.00    +0.064 HD
ATOM     18  H   UNL     1       6.960   0.486   0.060  0.00  0.00    +0.063 HD
ATOM     19  H   UNL     1       4.025   0.581  -3.079  0.00  0.00    +0.063 HD
ATOM     20  H   UNL     1       2.229   0.744  -1.409  0.00  0.00    +0.064 HD
ENDBRANCH   7  10
BRANCH   1  21
ATOM     21  C   UNL     1      -2.557  -1.721   0.881  0.00  0.00    +0.023 C 
ATOM     22  H   UNL     1      -3.015  -1.879   1.881  0.00  0.00    +0.038 HD
ATOM     23  H   UNL     1      -2.434  -2.735   0.445  0.00  0.00    +0.038 HD
BRANCH  21  28
ATOM     24  C   UNL     1      -5.176   0.840  -0.160  0.00  0.00    -0.061 A 
ATOM     25  C   UNL     1      -5.131   0.755  -1.552  0.00  0.00    -0.060 A 
ATOM     26  C   UNL     1      -4.256  -0.141  -2.170  0.00  0.00    -0.043 A 
ATOM     27  C   UNL     1      -3.419  -0.959  -1.400  0.00  0.00    +0.045 A 
ATOM     28  C   UNL     1      -3.463  -0.882   0.011  0.00  0.00    -0.023 A 
ATOM     29  C   UNL     1      -4.346   0.029   0.618  0.00  0.00    -0.057 A 
ATOM     30 CL   UNL     1      -2.340  -2.066  -2.242  0.00  0.00    -0.083 Cl
ATOM     31  H   UNL     1      -5.853   1.536   0.317  0.00  0.00    +0.062 HD
ATOM     32  H   UNL     1      -5.774   1.385  -2.153  0.00  0.00    +0.062 HD
ATOM     33  H   UNL     1      -4.228  -0.198  -3.251  0.00  0.00    +0.063 HD
ATOM     34  H   UNL     1      -4.395   0.112   1.696  0.00  0.00    +0.062 HD
ENDBRANCH  21  28
ENDBRANCH   1  21
TORSDOF 3
