REMARK  Name = 
REMARK  3 active torsions:
REMARK  status: ('A' for Active; 'I' for Inactive)
REMARK    1  A    between atoms: C_5  and  C_7
REMARK    2  A    between atoms: C_7  and  C_8
REMARK    3  A    between atoms: N_14  and  C_15
REMARK                            x       y       z     vdW  Elec       q    Type
REMARK                         _______ _______ _______ _____ _____    ______ ____
ROOT
ATOM      1  C   UNL     1       1.353  -1.284   0.310  0.00  0.00    +0.134 A 
ATOM      2  C   UNL     1       0.383  -0.497   0.945  0.00  0.00    +0.297 A 
ATOM      3  N   UNL     1      -0.848  -0.382   0.387  0.00  0.00    -0.173 NA
ATOM      4  C   UNL     1      -1.150  -1.023  -0.773  0.00  0.00    +0.242 A 
ATOM      5  N   UNL     1      -0.195  -1.767  -1.388  0.00  0.00    -0.112 NA
ATOM      6  N   UNL     1       1.022  -1.893  -0.859  0.00  0.00    -0.145 NA
ATOM      7  N   UNL     1      -2.441  -0.879  -1.383  0.00  0.00    -0.282 N 
ATOM      8  O   UNL     1       0.660   0.165   2.135  0.00  0.00    -0.264 OA
ATOM      9  H   UNL     1      -2.528  -1.134  -2.393  0.00  0.00    +0.155 HD
ENDROOT
BRANCH   7  10
ATOM     10  C   UNL     1      -3.585  -0.303  -0.728  0.00  0.00    +0.034 A 
ATOM     11  C   UNL     1      -4.506   0.441  -1.481  0.00  0.00    -0.039 A 
ATOM     12  C   UNL     1      -5.638   0.991  -0.871  0.00  0.00    -0.046 A 
ATOM     13  C   UNL     1      -5.867   0.789   0.493  0.00  0.00    +0.018 A 
ATOM     14  C   UNL     1      -4.968   0.029   1.246  0.00  0.00    -0.046 A 
ATOM     15  C   UNL     1      -3.834  -0.522   0.639  0.00  0.00    -0.039 A 
ATOM     16 BR   UNL     1      -7.415   1.539   1.324  0.00  0.00    -0.050 Br
ATOM     17  H   UNL     1      -4.341   0.602  -2.539  0.00  0.00    +0.064 HD
ATOM     18  H   UNL     1      -6.337   1.571  -1.460  0.00  0.00    +0.063 HD
ATOM     19  H   UNL     1      -5.150  -0.144   2.299  0.00  0.00    +0.063 HD
ATOM     20  H   UNL     1      -3.171  -1.138   1.232  0.00  0.00    +0.064 HD
ENDBRANCH   7  10
BRANCH   1  21
ATOM     21  C   UNL     1       2.747  -1.428   0.856  0.00  0.00    +0.023 C 
ATOM     22  H   UNL     1       2.718  -1.452   1.967  0.00  0.00    +0.038 HD
ATOM     23  H   UNL     1       3.172  -2.406   0.546  0.00  0.00    +0.038 HD
BRANCH  21  28
ATOM     24  C   UNL     1       4.562   1.917   0.753  0.00  0.00    -0.061 A 
ATOM     25  C   UNL     1       5.196   1.869  -0.489  0.00  0.00    -0.060 A 
ATOM     26  C   UNL     1       5.049   0.745  -1.305  0.00  0.00    -0.043 A 
ATOM     27  C   UNL     1       4.267  -0.338  -0.885  0.00  0.00    +0.045 A 
ATOM     28  C   UNL     1       3.626  -0.298   0.375  0.00  0.00    -0.023 A 
ATOM     29  C   UNL     1       3.780   0.843   1.183  0.00  0.00    -0.057 A 
ATOM     30 CL   UNL     1       4.123  -1.724  -1.962  0.00  0.00    -0.083 Cl
ATOM     31  H   UNL     1       4.676   2.790   1.384  0.00  0.00    +0.062 HD
ATOM     32  H   UNL     1       5.801   2.702  -0.820  0.00  0.00    +0.062 HD
ATOM     33  H   UNL     1       5.543   0.718  -2.268  0.00  0.00    +0.063 HD
ATOM     34  H   UNL     1       3.296   0.902   2.150  0.00  0.00    +0.062 HD
ENDBRANCH  21  28
ENDBRANCH   1  21
TORSDOF 3
