REMARK  Name = 
REMARK  3 active torsions:
REMARK  status: ('A' for Active; 'I' for Inactive)
REMARK    1  A    between atoms: C_5  and  C_7
REMARK    2  A    between atoms: C_7  and  C_8
REMARK    3  A    between atoms: N_14  and  C_15
REMARK                            x       y       z     vdW  Elec       q    Type
REMARK                         _______ _______ _______ _____ _____    ______ ____
ROOT
ATOM      1  C   UNL     1      -1.437  -0.322  -1.360  0.00  0.00    +0.134 A 
ATOM      2  C   UNL     1      -1.058   0.642  -2.306  0.00  0.00    +0.297 A 
ATOM      3  N   UNL     1       0.199   1.152  -2.267  0.00  0.00    -0.173 NA
ATOM      4  C   UNL     1       1.094   0.731  -1.337  0.00  0.00    +0.242 A 
ATOM      5  N   UNL     1       0.713  -0.200  -0.423  0.00  0.00    -0.112 NA
ATOM      6  N   UNL     1      -0.517  -0.715  -0.440  0.00  0.00    -0.145 NA
ATOM      7  N   UNL     1       2.405   1.312  -1.299  0.00  0.00    -0.282 N 
ATOM      8  O   UNL     1      -1.944   1.084  -3.281  0.00  0.00    -0.264 OA
ATOM      9  H   UNL     1       2.550   2.210  -1.813  0.00  0.00    +0.155 HD
ENDROOT
BRANCH   7  10
ATOM     10  C   UNL     1       3.494   0.799  -0.513  0.00  0.00    +0.034 A 
ATOM     11  C   UNL     1       4.421   1.693   0.045  0.00  0.00    -0.039 A 
ATOM     12  C   UNL     1       5.501   1.217   0.794  0.00  0.00    -0.046 A 
ATOM     13  C   UNL     1       5.675  -0.158   0.979  0.00  0.00    +0.018 A 
ATOM     14  C   UNL     1       4.771  -1.058   0.405  0.00  0.00    -0.046 A 
ATOM     15  C   UNL     1       3.689  -0.585  -0.344  0.00  0.00    -0.039 A 
ATOM     16 BR   UNL     1       7.153  -0.808   1.999  0.00  0.00    -0.050 Br
ATOM     17  H   UNL     1       4.298   2.760  -0.092  0.00  0.00    +0.064 HD
ATOM     18  H   UNL     1       6.204   1.917   1.229  0.00  0.00    +0.063 HD
ATOM     19  H   UNL     1       4.911  -2.124   0.531  0.00  0.00    +0.063 HD
ATOM     20  H   UNL     1       3.023  -1.299  -0.809  0.00  0.00    +0.064 HD
ENDBRANCH   7  10
BRANCH   1  21
ATOM     21  C   UNL     1      -2.811  -0.937  -1.340  0.00  0.00    +0.023 C 
ATOM     22  H   UNL     1      -3.440  -0.574  -2.179  0.00  0.00    +0.038 HD
ATOM     23  H   UNL     1      -2.706  -2.033  -1.495  0.00  0.00    +0.038 HD
BRANCH  21  28
ATOM     24  C   UNL     1      -4.027  -1.374   2.241  0.00  0.00    -0.061 A 
ATOM     25  C   UNL     1      -4.700  -0.173   2.470  0.00  0.00    -0.060 A 
ATOM     26  C   UNL     1      -4.769   0.791   1.462  0.00  0.00    -0.043 A 
ATOM     27  C   UNL     1      -4.170   0.560   0.218  0.00  0.00    +0.045 A 
ATOM     28  C   UNL     1      -3.498  -0.659  -0.025  0.00  0.00    -0.023 A 
ATOM     29  C   UNL     1      -3.426  -1.616   1.004  0.00  0.00    -0.057 A 
ATOM     30 CL   UNL     1      -4.279   1.821  -1.005  0.00  0.00    -0.083 Cl
ATOM     31  H   UNL     1      -3.969  -2.118   3.025  0.00  0.00    +0.062 HD
ATOM     32  H   UNL     1      -5.164   0.013   3.429  0.00  0.00    +0.062 HD
ATOM     33  H   UNL     1      -5.288   1.722   1.651  0.00  0.00    +0.063 HD
ATOM     34  H   UNL     1      -2.900  -2.550   0.848  0.00  0.00    +0.062 HD
ENDBRANCH  21  28
ENDBRANCH   1  21
TORSDOF 3
