REMARK  Name = 
REMARK  3 active torsions:
REMARK  status: ('A' for Active; 'I' for Inactive)
REMARK    1  A    between atoms: C_5  and  C_7
REMARK    2  A    between atoms: C_7  and  C_8
REMARK    3  A    between atoms: N_14  and  C_15
REMARK                            x       y       z     vdW  Elec       q    Type
REMARK                         _______ _______ _______ _____ _____    ______ ____
ROOT
ATOM      1  C   UNL     1      -1.301  -0.839  -0.987  0.00  0.00    +0.134 A 
ATOM      2  C   UNL     1      -0.396   0.231  -0.963  0.00  0.00    +0.297 A 
ATOM      3  N   UNL     1       0.848   0.037  -0.461  0.00  0.00    -0.173 NA
ATOM      4  C   UNL     1       1.227  -1.179   0.013  0.00  0.00    +0.242 A 
ATOM      5  N   UNL     1       0.334  -2.203   0.002  0.00  0.00    -0.112 NA
ATOM      6  N   UNL     1      -0.895  -2.035  -0.486  0.00  0.00    -0.145 NA
ATOM      7  N   UNL     1       2.532  -1.381   0.574  0.00  0.00    -0.282 N 
ATOM      8  O   UNL     1      -0.752   1.485  -1.447  0.00  0.00    -0.264 OA
ATOM      9  H   UNL     1       2.671  -2.220   1.181  0.00  0.00    +0.155 HD
ENDROOT
BRANCH   7  10
ATOM     10  C   UNL     1       3.619  -0.449   0.447  0.00  0.00    +0.034 A 
ATOM     11  C   UNL     1       3.826   0.280  -0.739  0.00  0.00    -0.039 A 
ATOM     12  C   UNL     1       4.906   1.163  -0.845  0.00  0.00    -0.046 A 
ATOM     13  C   UNL     1       5.796   1.314   0.222  0.00  0.00    +0.018 A 
ATOM     14  C   UNL     1       5.611   0.575   1.395  0.00  0.00    -0.046 A 
ATOM     15  C   UNL     1       4.532  -0.308   1.504  0.00  0.00    -0.039 A 
ATOM     16 BR   UNL     1       7.271   2.518   0.073  0.00  0.00    -0.050 Br
ATOM     17  H   UNL     1       3.171   0.151  -1.590  0.00  0.00    +0.064 HD
ATOM     18  H   UNL     1       5.055   1.720  -1.761  0.00  0.00    +0.063 HD
ATOM     19  H   UNL     1       6.303   0.683   2.220  0.00  0.00    +0.063 HD
ATOM     20  H   UNL     1       4.401  -0.876   2.416  0.00  0.00    +0.064 HD
ENDBRANCH   7  10
BRANCH   1  21
ATOM     21  C   UNL     1      -2.706  -0.685  -1.500  0.00  0.00    +0.023 C 
ATOM     22  H   UNL     1      -3.071  -1.657  -1.895  0.00  0.00    +0.038 HD
ATOM     23  H   UNL     1      -2.720   0.014  -2.365  0.00  0.00    +0.038 HD
BRANCH  21  28
ATOM     24  C   UNL     1      -4.679   1.686   0.733  0.00  0.00    -0.061 A 
ATOM     25  C   UNL     1      -5.260   0.810   1.650  0.00  0.00    -0.060 A 
ATOM     26  C   UNL     1      -5.026  -0.563   1.549  0.00  0.00    -0.043 A 
ATOM     27  C   UNL     1      -4.208  -1.070   0.531  0.00  0.00    +0.045 A 
ATOM     28  C   UNL     1      -3.620  -0.188  -0.405  0.00  0.00    -0.023 A 
ATOM     29  C   UNL     1      -3.862   1.193  -0.287  0.00  0.00    -0.057 A 
ATOM     30 CL   UNL     1      -3.955  -2.811   0.461  0.00  0.00    -0.083 Cl
ATOM     31  H   UNL     1      -4.860   2.751   0.814  0.00  0.00    +0.062 HD
ATOM     32  H   UNL     1      -5.892   1.194   2.440  0.00  0.00    +0.062 HD
ATOM     33  H   UNL     1      -5.480  -1.235   2.267  0.00  0.00    +0.063 HD
ATOM     34  H   UNL     1      -3.420   1.891  -0.987  0.00  0.00    +0.062 HD
ENDBRANCH  21  28
ENDBRANCH   1  21
TORSDOF 3
