REMARK  Name = 
REMARK  14 active torsions:
REMARK  status: ('A' for Active; 'I' for Inactive)
REMARK    1  A    between atoms: C_1  and  C_2
REMARK    2  A    between atoms: C_2  and  C_3
REMARK    3  A    between atoms: C_2  and  C_4
REMARK    4  A    between atoms: C_4  and  N_5
REMARK    5  A    between atoms: C_6  and  N_32
REMARK    6  A    between atoms: C_7  and  N_13
REMARK    7  A    between atoms: N_13  and  C_14
REMARK    8  A    between atoms: C_14  and  C_15
REMARK    9  A    between atoms: C_15  and  C_16
REMARK   10  A    between atoms: C_15  and  C_17
REMARK   11  A    between atoms: C_18  and  C_20
REMARK   12  A    between atoms: C_20  and  N_21
REMARK   13  A    between atoms: N_21  and  C_22
REMARK   14  A    between atoms: C_23  and  C_25
REMARK                            x       y       z     vdW  Elec       q    Type
REMARK                         _______ _______ _______ _____ _____    ______ ____
ROOT
ATOM      1  N   UNL     1       0.451   0.735   0.378  0.00  0.00    -0.263 N 
ATOM      2  C   UNL     1       0.771  -0.208   1.433  0.00  0.00    +0.237 C 
ATOM      3  O   UNL     1       0.107  -1.277   1.532  0.00  0.00    -0.274 OA
ENDROOT
BRANCH   1   6
ATOM      4  N   UNL     1      -2.882  -0.080  -1.149  0.00  0.00    -0.280 N 
ATOM      5  C   UNL     1      -1.938   0.291  -0.210  0.00  0.00    +0.127 A 
ATOM      6  C   UNL     1      -0.571   0.356  -0.575  0.00  0.00    +0.140 A 
ATOM      7  C   UNL     1      -0.212  -0.040  -1.869  0.00  0.00    +0.277 A 
ATOM      8  O   UNL     1       1.000  -0.090  -2.211  0.00  0.00    -0.266 OA
ATOM      9  N   UNL     1      -1.167  -0.398  -2.759  0.00  0.00    -0.273 N 
ATOM     10  C   UNL     1      -2.481  -0.416  -2.421  0.00  0.00    +0.331 A 
ATOM     11  O   UNL     1      -3.326  -0.758  -3.294  0.00  0.00    -0.246 OA
ATOM     12  H   UNL     1      -0.884  -0.679  -3.726  0.00  0.00    +0.173 HD
BRANCH   5  13
ATOM     13  N   UNL     1      -2.321   0.621   1.140  0.00  0.00    -0.343 N 
ATOM     14  H   UNL     1      -1.625   0.959   1.837  0.00  0.00    +0.144 HD
ATOM     15  H   UNL     1      -3.292   0.527   1.503  0.00  0.00    +0.144 HD
ENDBRANCH   5  13
BRANCH   4  16
ATOM     16  C   UNL     1      -4.322  -0.134  -0.807  0.00  0.00    +0.032 C 
ATOM     17  H   UNL     1      -4.602   0.760  -0.210  0.00  0.00    +0.050 HD
ATOM     18  H   UNL     1      -4.959  -0.045  -1.714  0.00  0.00    +0.050 HD
BRANCH  16  19
ATOM     19  C   UNL     1      -4.682  -1.437  -0.056  0.00  0.00    -0.029 C 
ATOM     20  H   UNL     1      -3.992  -1.574   0.803  0.00  0.00    +0.031 HD
BRANCH  19  21
ATOM     21  C   UNL     1      -6.108  -1.349   0.500  0.00  0.00    -0.061 C 
ATOM     22  H   UNL     1      -6.843  -1.220  -0.323  0.00  0.00    +0.023 HD
ATOM     23  H   UNL     1      -6.359  -2.273   1.064  0.00  0.00    +0.023 HD
ATOM     24  H   UNL     1      -6.195  -0.489   1.198  0.00  0.00    +0.023 HD
ENDBRANCH  19  21
BRANCH  19  25
ATOM     25  C   UNL     1      -4.546  -2.667  -0.964  0.00  0.00    -0.061 C 
ATOM     26  H   UNL     1      -4.847  -3.585  -0.414  0.00  0.00    +0.023 HD
ATOM     27  H   UNL     1      -3.490  -2.798  -1.281  0.00  0.00    +0.023 HD
ATOM     28  H   UNL     1      -5.187  -2.564  -1.865  0.00  0.00    +0.023 HD
ENDBRANCH  19  25
ENDBRANCH  16  19
ENDBRANCH   4  16
ENDBRANCH   1   6
BRANCH   1  29
ATOM     29  C   UNL     1       1.294   1.920   0.094  0.00  0.00    +0.022 C 
ATOM     30  H   UNL     1       2.290   1.825   0.563  0.00  0.00    +0.047 HD
ATOM     31  H   UNL     1       1.507   1.984  -0.993  0.00  0.00    +0.047 HD
BRANCH  29  32
ATOM     32  C   UNL     1       0.665   3.265   0.529  0.00  0.00    -0.030 C 
ATOM     33  H   UNL     1       1.379   4.059   0.215  0.00  0.00    +0.031 HD
BRANCH  32  34
ATOM     34  C   UNL     1      -0.658   3.567  -0.184  0.00  0.00    -0.061 C 
ATOM     35  H   UNL     1      -0.914   4.641  -0.059  0.00  0.00    +0.023 HD
ATOM     36  H   UNL     1      -0.574   3.358  -1.272  0.00  0.00    +0.023 HD
ATOM     37  H   UNL     1      -1.488   2.972   0.241  0.00  0.00    +0.023 HD
ENDBRANCH  32  34
BRANCH  32  38
ATOM     38  C   UNL     1       0.519   3.385   2.049  0.00  0.00    -0.061 C 
ATOM     39  H   UNL     1      -0.115   2.574   2.458  0.00  0.00    +0.023 HD
ATOM     40  H   UNL     1       1.519   3.344   2.530  0.00  0.00    +0.023 HD
ATOM     41  H   UNL     1       0.059   4.361   2.313  0.00  0.00    +0.023 HD
ENDBRANCH  32  38
ENDBRANCH  29  32
ENDBRANCH   1  29
BRANCH   2  42
ATOM     42  C   UNL     1       1.906  -0.003   2.404  0.00  0.00    +0.091 C 
ATOM     43  H   UNL     1       1.913   1.044   2.760  0.00  0.00    +0.056 HD
ATOM     44  H   UNL     1       1.740  -0.634   3.304  0.00  0.00    +0.056 HD
BRANCH  42  45
ATOM     45  N   UNL     1       3.189  -0.375   1.792  0.00  0.00    -0.292 N 
ATOM     46  C   UNL     1       3.376  -1.709   1.286  0.00  0.00    +0.248 C 
ATOM     47  O   UNL     1       2.981  -2.690   1.973  0.00  0.00    -0.270 OA
BRANCH  46  48
ATOM     48  C   UNL     1       4.002  -1.947  -0.034  0.00  0.00    +0.056 A 
ATOM     49  C   UNL     1       3.940  -0.978  -1.047  0.00  0.00    -0.033 A 
ATOM     50  C   UNL     1       4.512  -1.230  -2.296  0.00  0.00    +0.037 A 
ATOM     51  C   UNL     1       5.139  -2.457  -2.525  0.00  0.00    +0.042 A 
ATOM     52  N   UNL     1       5.182  -3.392  -1.540  0.00  0.00    -0.261 NA
ATOM     53  C   UNL     1       4.630  -3.171  -0.317  0.00  0.00    +0.040 A 
ATOM     54 BR   UNL     1       4.425   0.084  -3.678  0.00  0.00    -0.049 Br
ATOM     55  H   UNL     1       3.433  -0.038  -0.880  0.00  0.00    +0.064 HD
ATOM     56  H   UNL     1       5.587  -2.670  -3.486  0.00  0.00    +0.084 HD
ATOM     57  H   UNL     1       4.691  -3.947   0.435  0.00  0.00    +0.084 HD
ENDBRANCH  46  48
BRANCH  45  58
ATOM     58  C   UNL     1       4.359   0.500   1.928  0.00  0.00    +0.004 C 
ATOM     59  H   UNL     1       5.168  -0.036   2.467  0.00  0.00    +0.043 HD
ATOM     60  H   UNL     1       4.731   0.805   0.930  0.00  0.00    +0.043 HD
ATOM     61  H   UNL     1       4.116   1.420   2.499  0.00  0.00    +0.043 HD
ENDBRANCH  45  58
ENDBRANCH  42  45
ENDBRANCH   2  42
TORSDOF 14
