REMARK  Name = 
REMARK  14 active torsions:
REMARK  status: ('A' for Active; 'I' for Inactive)
REMARK    1  A    between atoms: C_1  and  C_2
REMARK    2  A    between atoms: C_2  and  C_3
REMARK    3  A    between atoms: C_2  and  C_4
REMARK    4  A    between atoms: C_4  and  N_5
REMARK    5  A    between atoms: C_6  and  N_32
REMARK    6  A    between atoms: C_7  and  N_13
REMARK    7  A    between atoms: N_13  and  C_14
REMARK    8  A    between atoms: C_14  and  C_15
REMARK    9  A    between atoms: C_15  and  C_16
REMARK   10  A    between atoms: C_15  and  C_17
REMARK   11  A    between atoms: C_18  and  C_20
REMARK   12  A    between atoms: C_20  and  N_21
REMARK   13  A    between atoms: N_21  and  C_22
REMARK   14  A    between atoms: C_23  and  C_25
REMARK                            x       y       z     vdW  Elec       q    Type
REMARK                         _______ _______ _______ _____ _____    ______ ____
ROOT
ATOM      1  N   UNL     1       0.389  -0.558  -0.395  0.00  0.00    -0.263 N 
ATOM      2  C   UNL     1       0.978  -0.580  -1.721  0.00  0.00    +0.237 C 
ATOM      3  O   UNL     1       0.751   0.375  -2.515  0.00  0.00    -0.274 OA
ENDROOT
BRANCH   1   6
ATOM      4  N   UNL     1      -2.394   1.948  -0.153  0.00  0.00    -0.280 N 
ATOM      5  C   UNL     1      -1.673   0.842  -0.561  0.00  0.00    +0.127 A 
ATOM      6  C   UNL     1      -0.386   0.606  -0.022  0.00  0.00    +0.140 A 
ATOM      7  C   UNL     1       0.155   1.561   0.847  0.00  0.00    +0.277 A 
ATOM      8  O   UNL     1       1.333   1.440   1.278  0.00  0.00    -0.266 OA
ATOM      9  N   UNL     1      -0.580   2.636   1.215  0.00  0.00    -0.273 N 
ATOM     10  C   UNL     1      -1.837   2.831   0.743  0.00  0.00    +0.331 A 
ATOM     11  O   UNL     1      -2.482   3.840   1.142  0.00  0.00    -0.246 OA
ATOM     12  H   UNL     1      -0.168   3.333   1.878  0.00  0.00    +0.173 HD
BRANCH   5  13
ATOM     13  N   UNL     1      -2.214  -0.087  -1.523  0.00  0.00    -0.343 N 
ATOM     14  H   UNL     1      -1.671  -0.912  -1.850  0.00  0.00    +0.144 HD
ATOM     15  H   UNL     1      -3.166  -0.001  -1.935  0.00  0.00    +0.144 HD
ENDBRANCH   5  13
BRANCH   4  16
ATOM     16  C   UNL     1      -3.772   2.187  -0.641  0.00  0.00    +0.032 C 
ATOM     17  H   UNL     1      -4.075   3.249  -0.510  0.00  0.00    +0.050 HD
ATOM     18  H   UNL     1      -3.815   2.044  -1.741  0.00  0.00    +0.050 HD
BRANCH  16  19
ATOM     19  C   UNL     1      -4.796   1.278   0.079  0.00  0.00    -0.029 C 
ATOM     20  H   UNL     1      -4.474   0.218  -0.004  0.00  0.00    +0.031 HD
BRANCH  19  21
ATOM     21  C   UNL     1      -4.898   1.619   1.571  0.00  0.00    -0.061 C 
ATOM     22  H   UNL     1      -5.663   0.978   2.060  0.00  0.00    +0.023 HD
ATOM     23  H   UNL     1      -3.929   1.429   2.078  0.00  0.00    +0.023 HD
ATOM     24  H   UNL     1      -5.181   2.684   1.713  0.00  0.00    +0.023 HD
ENDBRANCH  19  21
BRANCH  19  25
ATOM     25  C   UNL     1      -6.172   1.401  -0.586  0.00  0.00    -0.061 C 
ATOM     26  H   UNL     1      -6.548   2.444  -0.521  0.00  0.00    +0.023 HD
ATOM     27  H   UNL     1      -6.107   1.108  -1.656  0.00  0.00    +0.023 HD
ATOM     28  H   UNL     1      -6.900   0.725  -0.090  0.00  0.00    +0.023 HD
ENDBRANCH  19  25
ENDBRANCH  16  19
ENDBRANCH   4  16
ENDBRANCH   1   6
BRANCH   1  29
ATOM     29  C   UNL     1       0.772  -1.528   0.657  0.00  0.00    +0.022 C 
ATOM     30  H   UNL     1       1.019  -0.992   1.597  0.00  0.00    +0.047 HD
ATOM     31  H   UNL     1       1.705  -2.060   0.392  0.00  0.00    +0.047 HD
BRANCH  29  32
ATOM     32  C   UNL     1      -0.320  -2.575   0.982  0.00  0.00    -0.030 C 
ATOM     33  H   UNL     1       0.089  -3.206   1.803  0.00  0.00    +0.031 HD
BRANCH  32  34
ATOM     34  C   UNL     1      -0.602  -3.517  -0.193  0.00  0.00    -0.061 C 
ATOM     35  H   UNL     1      -0.940  -2.955  -1.085  0.00  0.00    +0.023 HD
ATOM     36  H   UNL     1      -1.392  -4.248   0.085  0.00  0.00    +0.023 HD
ATOM     37  H   UNL     1       0.313  -4.091  -0.447  0.00  0.00    +0.023 HD
ENDBRANCH  32  34
BRANCH  32  38
ATOM     38  C   UNL     1      -1.613  -1.951   1.519  0.00  0.00    -0.061 C 
ATOM     39  H   UNL     1      -2.218  -1.512   0.703  0.00  0.00    +0.023 HD
ATOM     40  H   UNL     1      -2.230  -2.733   2.011  0.00  0.00    +0.023 HD
ATOM     41  H   UNL     1      -1.387  -1.166   2.273  0.00  0.00    +0.023 HD
ENDBRANCH  32  38
ENDBRANCH  29  32
ENDBRANCH   1  29
BRANCH   2  42
ATOM     42  C   UNL     1       1.898  -1.676  -2.194  0.00  0.00    +0.091 C 
ATOM     43  H   UNL     1       1.501  -2.661  -1.883  0.00  0.00    +0.056 HD
ATOM     44  H   UNL     1       1.915  -1.688  -3.306  0.00  0.00    +0.056 HD
BRANCH  42  45
ATOM     45  N   UNL     1       3.264  -1.461  -1.698  0.00  0.00    -0.292 N 
ATOM     46  C   UNL     1       3.954  -0.242  -2.022  0.00  0.00    +0.248 C 
ATOM     47  O   UNL     1       3.913   0.195  -3.205  0.00  0.00    -0.270 OA
BRANCH  46  48
ATOM     48  C   UNL     1       4.693   0.519  -0.990  0.00  0.00    +0.056 A 
ATOM     49  C   UNL     1       4.335   0.431   0.365  0.00  0.00    -0.033 A 
ATOM     50  C   UNL     1       5.024   1.177   1.323  0.00  0.00    +0.037 A 
ATOM     51  C   UNL     1       6.067   2.012   0.918  0.00  0.00    +0.042 A 
ATOM     52  N   UNL     1       6.397   2.099  -0.398  0.00  0.00    -0.261 NA
ATOM     53  C   UNL     1       5.739   1.385  -1.350  0.00  0.00    +0.040 A 
ATOM     54 BR   UNL     1       4.535   1.063   3.165  0.00  0.00    -0.049 Br
ATOM     55  H   UNL     1       3.511  -0.196   0.677  0.00  0.00    +0.064 HD
ATOM     56  H   UNL     1       6.612   2.598   1.647  0.00  0.00    +0.084 HD
ATOM     57  H   UNL     1       6.039   1.487  -2.385  0.00  0.00    +0.084 HD
ENDBRANCH  46  48
BRANCH  45  58
ATOM     58  C   UNL     1       4.022  -2.567  -1.103  0.00  0.00    +0.004 C 
ATOM     59  H   UNL     1       3.424  -3.501  -1.071  0.00  0.00    +0.043 HD
ATOM     60  H   UNL     1       4.935  -2.762  -1.705  0.00  0.00    +0.043 HD
ATOM     61  H   UNL     1       4.322  -2.316  -0.066  0.00  0.00    +0.043 HD
ENDBRANCH  45  58
ENDBRANCH  42  45
ENDBRANCH   2  42
TORSDOF 14
