REMARK  Name = 
REMARK  14 active torsions:
REMARK  status: ('A' for Active; 'I' for Inactive)
REMARK    1  A    between atoms: C_1  and  C_2
REMARK    2  A    between atoms: C_2  and  C_3
REMARK    3  A    between atoms: C_2  and  C_4
REMARK    4  A    between atoms: C_4  and  N_5
REMARK    5  A    between atoms: C_6  and  N_32
REMARK    6  A    between atoms: C_7  and  N_13
REMARK    7  A    between atoms: N_13  and  C_14
REMARK    8  A    between atoms: C_14  and  C_15
REMARK    9  A    between atoms: C_15  and  C_16
REMARK   10  A    between atoms: C_15  and  C_17
REMARK   11  A    between atoms: C_18  and  C_20
REMARK   12  A    between atoms: C_20  and  N_21
REMARK   13  A    between atoms: N_21  and  C_22
REMARK   14  A    between atoms: C_23  and  C_25
REMARK                            x       y       z     vdW  Elec       q    Type
REMARK                         _______ _______ _______ _____ _____    ______ ____
ROOT
ATOM      1  N   UNL     1       0.361  -0.550   0.902  0.00  0.00    -0.263 N 
ATOM      2  C   UNL     1       1.475   0.370   0.932  0.00  0.00    +0.237 C 
ATOM      3  O   UNL     1       1.292   1.571   0.589  0.00  0.00    -0.274 OA
ENDROOT
BRANCH   1   6
ATOM      4  N   UNL     1      -3.080   0.510  -0.109  0.00  0.00    -0.280 N 
ATOM      5  C   UNL     1      -1.992   0.220   0.691  0.00  0.00    +0.127 A 
ATOM      6  C   UNL     1      -0.787  -0.212   0.102  0.00  0.00    +0.140 A 
ATOM      7  C   UNL     1      -0.710  -0.286  -1.290  0.00  0.00    +0.277 A 
ATOM      8  O   UNL     1       0.360  -0.651  -1.849  0.00  0.00    -0.266 OA
ATOM      9  N   UNL     1      -1.790   0.023  -2.045  0.00  0.00    -0.273 N 
ATOM     10  C   UNL     1      -2.962   0.408  -1.477  0.00  0.00    +0.331 A 
ATOM     11  O   UNL     1      -3.938   0.680  -2.231  0.00  0.00    -0.246 OA
ATOM     12  H   UNL     1      -1.721  -0.042  -3.087  0.00  0.00    +0.173 HD
BRANCH   5  13
ATOM     13  N   UNL     1      -2.045   0.388   2.122  0.00  0.00    -0.343 N 
ATOM     14  H   UNL     1      -1.182   0.333   2.705  0.00  0.00    +0.144 HD
ATOM     15  H   UNL     1      -2.919   0.612   2.643  0.00  0.00    +0.144 HD
ENDBRANCH   5  13
BRANCH   4  16
ATOM     16  C   UNL     1      -4.365   0.958   0.476  0.00  0.00    +0.032 C 
ATOM     17  H   UNL     1      -5.212   0.790  -0.225  0.00  0.00    +0.050 HD
ATOM     18  H   UNL     1      -4.624   0.321   1.348  0.00  0.00    +0.050 HD
BRANCH  16  19
ATOM     19  C   UNL     1      -4.323   2.451   0.874  0.00  0.00    -0.029 C 
ATOM     20  H   UNL     1      -3.443   2.637   1.526  0.00  0.00    +0.031 HD
BRANCH  19  21
ATOM     21  C   UNL     1      -4.194   3.359  -0.356  0.00  0.00    -0.061 C 
ATOM     22  H   UNL     1      -3.233   3.168  -0.878  0.00  0.00    +0.023 HD
ATOM     23  H   UNL     1      -5.033   3.184  -1.064  0.00  0.00    +0.023 HD
ATOM     24  H   UNL     1      -4.202   4.426  -0.049  0.00  0.00    +0.023 HD
ENDBRANCH  19  21
BRANCH  19  25
ATOM     25  C   UNL     1      -5.579   2.821   1.672  0.00  0.00    -0.061 C 
ATOM     26  H   UNL     1      -5.536   3.886   1.985  0.00  0.00    +0.023 HD
ATOM     27  H   UNL     1      -6.493   2.663   1.060  0.00  0.00    +0.023 HD
ATOM     28  H   UNL     1      -5.647   2.197   2.589  0.00  0.00    +0.023 HD
ENDBRANCH  19  25
ENDBRANCH  16  19
ENDBRANCH   4  16
ENDBRANCH   1   6
BRANCH   1  29
ATOM     29  C   UNL     1       0.351  -1.799   1.682  0.00  0.00    +0.022 C 
ATOM     30  H   UNL     1      -0.681  -2.029   2.026  0.00  0.00    +0.047 HD
ATOM     31  H   UNL     1       0.935  -1.649   2.616  0.00  0.00    +0.047 HD
BRANCH  29  32
ATOM     32  C   UNL     1       0.906  -2.984   0.857  0.00  0.00    -0.030 C 
ATOM     33  H   UNL     1       1.667  -2.609   0.140  0.00  0.00    +0.031 HD
BRANCH  32  34
ATOM     34  C   UNL     1      -0.202  -3.675   0.050  0.00  0.00    -0.061 C 
ATOM     35  H   UNL     1      -0.971  -4.106   0.727  0.00  0.00    +0.023 HD
ATOM     36  H   UNL     1      -0.696  -2.959  -0.636  0.00  0.00    +0.023 HD
ATOM     37  H   UNL     1       0.228  -4.493  -0.567  0.00  0.00    +0.023 HD
ENDBRANCH  32  34
BRANCH  32  38
ATOM     38  C   UNL     1       1.594  -4.006   1.771  0.00  0.00    -0.061 C 
ATOM     39  H   UNL     1       1.996  -4.851   1.172  0.00  0.00    +0.023 HD
ATOM     40  H   UNL     1       0.876  -4.405   2.520  0.00  0.00    +0.023 HD
ATOM     41  H   UNL     1       2.445  -3.533   2.306  0.00  0.00    +0.023 HD
ENDBRANCH  32  38
ENDBRANCH  29  32
ENDBRANCH   1  29
BRANCH   2  42
ATOM     42  C   UNL     1       2.863  -0.039   1.351  0.00  0.00    +0.091 C 
ATOM     43  H   UNL     1       2.923  -1.102   1.654  0.00  0.00    +0.056 HD
ATOM     44  H   UNL     1       3.146   0.562   2.242  0.00  0.00    +0.056 HD
BRANCH  42  45
ATOM     45  N   UNL     1       3.802   0.206   0.253  0.00  0.00    -0.292 N 
ATOM     46  C   UNL     1       3.881  -0.728  -0.835  0.00  0.00    +0.248 C 
ATOM     47  O   UNL     1       4.142  -1.937  -0.588  0.00  0.00    -0.270 OA
BRANCH  46  48
ATOM     48  C   UNL     1       3.644  -0.296  -2.234  0.00  0.00    +0.056 A 
ATOM     49  C   UNL     1       3.082   0.960  -2.520  0.00  0.00    -0.033 A 
ATOM     50  C   UNL     1       2.832   1.334  -3.841  0.00  0.00    +0.037 A 
ATOM     51  C   UNL     1       3.149   0.449  -4.873  0.00  0.00    +0.042 A 
ATOM     52  N   UNL     1       3.691  -0.763  -4.587  0.00  0.00    -0.261 NA
ATOM     53  C   UNL     1       3.939  -1.153  -3.308  0.00  0.00    +0.040 A 
ATOM     54 BR   UNL     1       2.050   3.032  -4.231  0.00  0.00    -0.049 Br
ATOM     55  H   UNL     1       2.818   1.643  -1.724  0.00  0.00    +0.064 HD
ATOM     56  H   UNL     1       2.962   0.723  -5.904  0.00  0.00    +0.084 HD
ATOM     57  H   UNL     1       4.369  -2.131  -3.134  0.00  0.00    +0.084 HD
ENDBRANCH  46  48
BRANCH  45  58
ATOM     58  C   UNL     1       4.758   1.309   0.345  0.00  0.00    +0.004 C 
ATOM     59  H   UNL     1       5.341   1.412  -0.595  0.00  0.00    +0.043 HD
ATOM     60  H   UNL     1       4.217   2.261   0.530  0.00  0.00    +0.043 HD
ATOM     61  H   UNL     1       5.464   1.121   1.180  0.00  0.00    +0.043 HD
ENDBRANCH  45  58
ENDBRANCH  42  45
ENDBRANCH   2  42
TORSDOF 14
