REMARK  Name = 
REMARK  14 active torsions:
REMARK  status: ('A' for Active; 'I' for Inactive)
REMARK    1  A    between atoms: C_1  and  C_2
REMARK    2  A    between atoms: C_2  and  C_3
REMARK    3  A    between atoms: C_2  and  C_4
REMARK    4  A    between atoms: C_4  and  N_5
REMARK    5  A    between atoms: C_6  and  N_32
REMARK    6  A    between atoms: C_7  and  N_13
REMARK    7  A    between atoms: N_13  and  C_14
REMARK    8  A    between atoms: C_14  and  C_15
REMARK    9  A    between atoms: C_15  and  C_16
REMARK   10  A    between atoms: C_15  and  C_17
REMARK   11  A    between atoms: C_18  and  C_20
REMARK   12  A    between atoms: C_20  and  N_21
REMARK   13  A    between atoms: N_21  and  C_22
REMARK   14  A    between atoms: C_23  and  C_25
REMARK                            x       y       z     vdW  Elec       q    Type
REMARK                         _______ _______ _______ _____ _____    ______ ____
ROOT
ATOM      1  N   UNL     1      -0.338  -1.431  -0.095  0.00  0.00    -0.263 N 
ATOM      2  C   UNL     1       0.845  -0.754  -0.574  0.00  0.00    +0.237 C 
ATOM      3  O   UNL     1       0.759   0.005  -1.579  0.00  0.00    -0.274 OA
ENDROOT
BRANCH   1   6
ATOM      4  N   UNL     1      -3.665   0.270  -0.159  0.00  0.00    -0.280 N 
ATOM      5  C   UNL     1      -2.420  -0.137   0.280  0.00  0.00    +0.127 A 
ATOM      6  C   UNL     1      -1.628  -0.968  -0.537  0.00  0.00    +0.140 A 
ATOM      7  C   UNL     1      -2.112  -1.331  -1.795  0.00  0.00    +0.277 A 
ATOM      8  O   UNL     1      -1.418  -2.053  -2.561  0.00  0.00    -0.266 OA
ATOM      9  N   UNL     1      -3.333  -0.907  -2.197  0.00  0.00    -0.273 N 
ATOM     10  C   UNL     1      -4.107  -0.123  -1.402  0.00  0.00    +0.331 A 
ATOM     11  O   UNL     1      -5.237   0.243  -1.831  0.00  0.00    -0.246 OA
ATOM     12  H   UNL     1      -3.686  -1.188  -3.141  0.00  0.00    +0.173 HD
BRANCH   5  13
ATOM     13  N   UNL     1      -1.894   0.291   1.553  0.00  0.00    -0.343 N 
ATOM     14  H   UNL     1      -2.431   0.868   2.233  0.00  0.00    +0.144 HD
ATOM     15  H   UNL     1      -0.916   0.064   1.839  0.00  0.00    +0.144 HD
ENDBRANCH   5  13
BRANCH   4  16
ATOM     16  C   UNL     1      -4.525   1.141   0.674  0.00  0.00    +0.032 C 
ATOM     17  H   UNL     1      -4.530   0.774   1.722  0.00  0.00    +0.050 HD
ATOM     18  H   UNL     1      -5.593   1.068   0.372  0.00  0.00    +0.050 HD
BRANCH  16  19
ATOM     19  C   UNL     1      -4.077   2.619   0.607  0.00  0.00    -0.029 C 
ATOM     20  H   UNL     1      -2.994   2.690   0.844  0.00  0.00    +0.031 HD
BRANCH  19  21
ATOM     21  C   UNL     1      -4.836   3.450   1.648  0.00  0.00    -0.061 C 
ATOM     22  H   UNL     1      -4.494   4.506   1.622  0.00  0.00    +0.023 HD
ATOM     23  H   UNL     1      -5.930   3.421   1.452  0.00  0.00    +0.023 HD
ATOM     24  H   UNL     1      -4.644   3.053   2.668  0.00  0.00    +0.023 HD
ENDBRANCH  19  21
BRANCH  19  25
ATOM     25  C   UNL     1      -4.290   3.208  -0.794  0.00  0.00    -0.061 C 
ATOM     26  H   UNL     1      -3.659   2.676  -1.536  0.00  0.00    +0.023 HD
ATOM     27  H   UNL     1      -5.355   3.127  -1.097  0.00  0.00    +0.023 HD
ATOM     28  H   UNL     1      -3.994   4.279  -0.809  0.00  0.00    +0.023 HD
ENDBRANCH  19  25
ENDBRANCH  16  19
ENDBRANCH   4  16
ENDBRANCH   1   6
BRANCH   1  29
ATOM     29  C   UNL     1      -0.285  -2.576   0.832  0.00  0.00    +0.022 C 
ATOM     30  H   UNL     1      -1.102  -2.470   1.580  0.00  0.00    +0.047 HD
ATOM     31  H   UNL     1       0.658  -2.589   1.415  0.00  0.00    +0.047 HD
BRANCH  29  32
ATOM     32  C   UNL     1      -0.461  -3.917   0.089  0.00  0.00    -0.030 C 
ATOM     33  H   UNL     1      -1.391  -3.874  -0.517  0.00  0.00    +0.031 HD
BRANCH  32  34
ATOM     34  C   UNL     1       0.719  -4.204  -0.850  0.00  0.00    -0.061 C 
ATOM     35  H   UNL     1       0.816  -3.404  -1.613  0.00  0.00    +0.023 HD
ATOM     36  H   UNL     1       0.555  -5.163  -1.385  0.00  0.00    +0.023 HD
ATOM     37  H   UNL     1       1.668  -4.275  -0.277  0.00  0.00    +0.023 HD
ENDBRANCH  32  34
BRANCH  32  38
ATOM     38  C   UNL     1      -0.619  -5.064   1.096  0.00  0.00    -0.061 C 
ATOM     39  H   UNL     1      -1.504  -4.887   1.743  0.00  0.00    +0.023 HD
ATOM     40  H   UNL     1      -0.772  -6.026   0.561  0.00  0.00    +0.023 HD
ATOM     41  H   UNL     1       0.284  -5.150   1.738  0.00  0.00    +0.023 HD
ENDBRANCH  32  38
ENDBRANCH  29  32
ENDBRANCH   1  29
BRANCH   2  42
ATOM     42  C   UNL     1       2.183  -0.927   0.102  0.00  0.00    +0.091 C 
ATOM     43  H   UNL     1       2.537  -1.967  -0.057  0.00  0.00    +0.056 HD
ATOM     44  H   UNL     1       2.071  -0.771   1.197  0.00  0.00    +0.056 HD
BRANCH  42  45
ATOM     45  N   UNL     1       3.176   0.019  -0.420  0.00  0.00    -0.292 N 
ATOM     46  C   UNL     1       3.222   1.367   0.095  0.00  0.00    +0.248 C 
ATOM     47  O   UNL     1       2.155   1.915   0.486  0.00  0.00    -0.270 OA
BRANCH  46  48
ATOM     48  C   UNL     1       4.492   2.123   0.191  0.00  0.00    +0.056 A 
ATOM     49  C   UNL     1       5.705   1.471   0.461  0.00  0.00    -0.033 A 
ATOM     50  C   UNL     1       6.889   2.206   0.561  0.00  0.00    +0.037 A 
ATOM     51  C   UNL     1       6.847   3.593   0.402  0.00  0.00    +0.042 A 
ATOM     52  N   UNL     1       5.664   4.214   0.158  0.00  0.00    -0.261 NA
ATOM     53  C   UNL     1       4.499   3.521   0.055  0.00  0.00    +0.040 A 
ATOM     54 BR   UNL     1       8.544   1.326   0.924  0.00  0.00    -0.049 Br
ATOM     55  H   UNL     1       5.733   0.400   0.614  0.00  0.00    +0.064 HD
ATOM     56  H   UNL     1       7.754   4.178   0.477  0.00  0.00    +0.084 HD
ATOM     57  H   UNL     1       3.581   4.059  -0.143  0.00  0.00    +0.084 HD
ENDBRANCH  46  48
BRANCH  45  58
ATOM     58  C   UNL     1       4.053  -0.409  -1.513  0.00  0.00    +0.004 C 
ATOM     59  H   UNL     1       3.460  -0.937  -2.289  0.00  0.00    +0.043 HD
ATOM     60  H   UNL     1       4.546   0.460  -1.998  0.00  0.00    +0.043 HD
ATOM     61  H   UNL     1       4.829  -1.101  -1.123  0.00  0.00    +0.043 HD
ENDBRANCH  45  58
ENDBRANCH  42  45
ENDBRANCH   2  42
TORSDOF 14
