REMARK  Name = 
REMARK  14 active torsions:
REMARK  status: ('A' for Active; 'I' for Inactive)
REMARK    1  A    between atoms: C_1  and  C_2
REMARK    2  A    between atoms: C_2  and  C_3
REMARK    3  A    between atoms: C_2  and  C_4
REMARK    4  A    between atoms: C_4  and  N_5
REMARK    5  A    between atoms: C_6  and  N_32
REMARK    6  A    between atoms: C_7  and  N_13
REMARK    7  A    between atoms: N_13  and  C_14
REMARK    8  A    between atoms: C_14  and  C_15
REMARK    9  A    between atoms: C_15  and  C_16
REMARK   10  A    between atoms: C_15  and  C_17
REMARK   11  A    between atoms: C_18  and  C_20
REMARK   12  A    between atoms: C_20  and  N_21
REMARK   13  A    between atoms: N_21  and  C_22
REMARK   14  A    between atoms: C_23  and  C_25
REMARK                            x       y       z     vdW  Elec       q    Type
REMARK                         _______ _______ _______ _____ _____    ______ ____
ROOT
ATOM      1  N   UNL     1      -0.069  -0.139  -0.340  0.00  0.00    -0.263 N 
ATOM      2  C   UNL     1       1.026  -0.175   0.609  0.00  0.00    +0.237 C 
ATOM      3  O   UNL     1       0.916  -0.877   1.652  0.00  0.00    -0.274 OA
ENDROOT
BRANCH   1   6
ATOM      4  N   UNL     1      -3.312  -1.101   1.270  0.00  0.00    -0.280 N 
ATOM      5  C   UNL     1      -2.174  -0.374   0.971  0.00  0.00    +0.127 A 
ATOM      6  C   UNL     1      -1.284  -0.846  -0.019  0.00  0.00    +0.140 A 
ATOM      7  C   UNL     1      -1.584  -2.042  -0.675  0.00  0.00    +0.277 A 
ATOM      8  O   UNL     1      -0.796  -2.508  -1.542  0.00  0.00    -0.266 OA
ATOM      9  N   UNL     1      -2.719  -2.714  -0.371  0.00  0.00    -0.273 N 
ATOM     10  C   UNL     1      -3.574  -2.264   0.583  0.00  0.00    +0.331 A 
ATOM     11  O   UNL     1      -4.612  -2.938   0.832  0.00  0.00    -0.246 OA
ATOM     12  H   UNL     1      -2.935  -3.605  -0.874  0.00  0.00    +0.173 HD
BRANCH   5  13
ATOM     13  N   UNL     1      -1.880   0.875   1.630  0.00  0.00    -0.343 N 
ATOM     14  H   UNL     1      -2.574   1.405   2.193  0.00  0.00    +0.144 HD
ATOM     15  H   UNL     1      -0.983   1.380   1.465  0.00  0.00    +0.144 HD
ENDBRANCH   5  13
BRANCH   4  16
ATOM     16  C   UNL     1      -4.264  -0.681   2.326  0.00  0.00    +0.032 C 
ATOM     17  H   UNL     1      -4.582  -1.578   2.903  0.00  0.00    +0.050 HD
ATOM     18  H   UNL     1      -3.790  -0.045   3.098  0.00  0.00    +0.050 HD
BRANCH  16  19
ATOM     19  C   UNL     1      -5.521  -0.002   1.732  0.00  0.00    -0.029 C 
ATOM     20  H   UNL     1      -5.987  -0.694   0.996  0.00  0.00    +0.031 HD
BRANCH  19  21
ATOM     21  C   UNL     1      -5.190   1.305   1.002  0.00  0.00    -0.061 C 
ATOM     22  H   UNL     1      -4.767   2.054   1.705  0.00  0.00    +0.023 HD
ATOM     23  H   UNL     1      -6.111   1.731   0.550  0.00  0.00    +0.023 HD
ATOM     24  H   UNL     1      -4.469   1.121   0.179  0.00  0.00    +0.023 HD
ENDBRANCH  19  21
BRANCH  19  25
ATOM     25  C   UNL     1      -6.553   0.260   2.836  0.00  0.00    -0.061 C 
ATOM     26  H   UNL     1      -6.139   0.948   3.604  0.00  0.00    +0.023 HD
ATOM     27  H   UNL     1      -6.842  -0.694   3.326  0.00  0.00    +0.023 HD
ATOM     28  H   UNL     1      -7.471   0.715   2.404  0.00  0.00    +0.023 HD
ENDBRANCH  19  25
ENDBRANCH  16  19
ENDBRANCH   4  16
ENDBRANCH   1   6
BRANCH   1  29
ATOM     29  C   UNL     1       0.058   0.482  -1.670  0.00  0.00    +0.022 C 
ATOM     30  H   UNL     1       1.058   0.247  -2.091  0.00  0.00    +0.047 HD
ATOM     31  H   UNL     1      -0.661   0.025  -2.386  0.00  0.00    +0.047 HD
BRANCH  29  32
ATOM     32  C   UNL     1      -0.181   2.008  -1.608  0.00  0.00    -0.030 C 
ATOM     33  H   UNL     1       0.227   2.409  -0.654  0.00  0.00    +0.031 HD
BRANCH  32  34
ATOM     34  C   UNL     1       0.547   2.714  -2.758  0.00  0.00    -0.061 C 
ATOM     35  H   UNL     1       1.641   2.536  -2.686  0.00  0.00    +0.023 HD
ATOM     36  H   UNL     1       0.186   2.337  -3.739  0.00  0.00    +0.023 HD
ATOM     37  H   UNL     1       0.375   3.811  -2.708  0.00  0.00    +0.023 HD
ENDBRANCH  32  34
BRANCH  32  38
ATOM     38  C   UNL     1      -1.679   2.340  -1.661  0.00  0.00    -0.061 C 
ATOM     39  H   UNL     1      -1.832   3.435  -1.558  0.00  0.00    +0.023 HD
ATOM     40  H   UNL     1      -2.220   1.842  -0.834  0.00  0.00    +0.023 HD
ATOM     41  H   UNL     1      -2.122   2.006  -2.624  0.00  0.00    +0.023 HD
ENDBRANCH  32  38
ENDBRANCH  29  32
ENDBRANCH   1  29
BRANCH   2  42
ATOM     42  C   UNL     1       2.292   0.626   0.434  0.00  0.00    +0.091 C 
ATOM     43  H   UNL     1       2.326   1.187  -0.519  0.00  0.00    +0.056 HD
ATOM     44  H   UNL     1       2.329   1.397   1.233  0.00  0.00    +0.056 HD
BRANCH  42  45
ATOM     45  N   UNL     1       3.469  -0.246   0.519  0.00  0.00    -0.292 N 
ATOM     46  C   UNL     1       3.862  -1.028  -0.625  0.00  0.00    +0.248 C 
ATOM     47  O   UNL     1       2.976  -1.511  -1.382  0.00  0.00    -0.270 OA
BRANCH  46  48
ATOM     48  C   UNL     1       5.285  -1.285  -0.933  0.00  0.00    +0.056 A 
ATOM     49  C   UNL     1       6.263  -0.307  -0.694  0.00  0.00    -0.033 A 
ATOM     50  C   UNL     1       7.600  -0.562  -1.007  0.00  0.00    +0.037 A 
ATOM     51  C   UNL     1       7.947  -1.792  -1.570  0.00  0.00    +0.042 A 
ATOM     52  N   UNL     1       6.988  -2.723  -1.814  0.00  0.00    -0.261 NA
ATOM     53  C   UNL     1       5.680  -2.498  -1.518  0.00  0.00    +0.040 A 
ATOM     54 BR   UNL     1       8.936   0.762  -0.681  0.00  0.00    -0.049 Br
ATOM     55  H   UNL     1       5.987   0.658  -0.287  0.00  0.00    +0.064 HD
ATOM     56  H   UNL     1       8.977  -2.006  -1.821  0.00  0.00    +0.084 HD
ATOM     57  H   UNL     1       4.951  -3.271  -1.728  0.00  0.00    +0.084 HD
ENDBRANCH  46  48
BRANCH  45  58
ATOM     58  C   UNL     1       4.116  -0.479   1.815  0.00  0.00    +0.004 C 
ATOM     59  H   UNL     1       4.159  -1.569   2.024  0.00  0.00    +0.043 HD
ATOM     60  H   UNL     1       5.145  -0.067   1.814  0.00  0.00    +0.043 HD
ATOM     61  H   UNL     1       3.552   0.006   2.639  0.00  0.00    +0.043 HD
ENDBRANCH  45  58
ENDBRANCH  42  45
ENDBRANCH   2  42
TORSDOF 14
