REMARK  Name = 
REMARK  14 active torsions:
REMARK  status: ('A' for Active; 'I' for Inactive)
REMARK    1  A    between atoms: C_1  and  C_2
REMARK    2  A    between atoms: C_2  and  C_3
REMARK    3  A    between atoms: C_2  and  C_4
REMARK    4  A    between atoms: C_4  and  N_5
REMARK    5  A    between atoms: C_6  and  N_32
REMARK    6  A    between atoms: C_7  and  N_13
REMARK    7  A    between atoms: N_13  and  C_14
REMARK    8  A    between atoms: C_14  and  C_15
REMARK    9  A    between atoms: C_15  and  C_16
REMARK   10  A    between atoms: C_15  and  C_17
REMARK   11  A    between atoms: C_18  and  C_20
REMARK   12  A    between atoms: C_20  and  N_21
REMARK   13  A    between atoms: N_21  and  C_22
REMARK   14  A    between atoms: C_23  and  C_25
REMARK                            x       y       z     vdW  Elec       q    Type
REMARK                         _______ _______ _______ _____ _____    ______ ____
ROOT
ATOM      1  N   UNL     1       0.259  -0.586   0.368  0.00  0.00    -0.263 N 
ATOM      2  C   UNL     1       0.380   0.063   1.656  0.00  0.00    +0.237 C 
ATOM      3  O   UNL     1      -0.295   1.103   1.891  0.00  0.00    -0.274 OA
ENDROOT
BRANCH   1   6
ATOM      4  N   UNL     1      -2.659   0.614  -1.657  0.00  0.00    -0.280 N 
ATOM      5  C   UNL     1      -1.943   0.001  -0.646  0.00  0.00    +0.127 A 
ATOM      6  C   UNL     1      -0.532   0.054  -0.657  0.00  0.00    +0.140 A 
ATOM      7  C   UNL     1       0.102   0.764  -1.680  0.00  0.00    +0.277 A 
ATOM      8  O   UNL     1       1.358   0.866  -1.702  0.00  0.00    -0.266 OA
ATOM      9  N   UNL     1      -0.633   1.358  -2.649  0.00  0.00    -0.273 N 
ATOM     10  C   UNL     1      -1.989   1.291  -2.650  0.00  0.00    +0.331 A 
ATOM     11  O   UNL     1      -2.622   1.868  -3.578  0.00  0.00    -0.246 OA
ATOM     12  H   UNL     1      -0.145   1.885  -3.409  0.00  0.00    +0.173 HD
BRANCH   5  13
ATOM     13  N   UNL     1      -2.609  -0.696   0.425  0.00  0.00    -0.343 N 
ATOM     14  H   UNL     1      -3.642  -0.805   0.488  0.00  0.00    +0.144 HD
ATOM     15  H   UNL     1      -2.076  -1.102   1.222  0.00  0.00    +0.144 HD
ENDBRANCH   5  13
BRANCH   4  16
ATOM     16  C   UNL     1      -4.139   0.575  -1.680  0.00  0.00    +0.032 C 
ATOM     17  H   UNL     1      -4.494  -0.455  -1.463  0.00  0.00    +0.050 HD
ATOM     18  H   UNL     1      -4.537   0.771  -2.700  0.00  0.00    +0.050 HD
BRANCH  16  19
ATOM     19  C   UNL     1      -4.754   1.593  -0.692  0.00  0.00    -0.029 C 
ATOM     20  H   UNL     1      -4.310   1.446   0.316  0.00  0.00    +0.031 HD
BRANCH  19  21
ATOM     21  C   UNL     1      -4.467   3.038  -1.123  0.00  0.00    -0.061 C 
ATOM     22  H   UNL     1      -3.375   3.235  -1.109  0.00  0.00    +0.023 HD
ATOM     23  H   UNL     1      -4.858   3.228  -2.145  0.00  0.00    +0.023 HD
ATOM     24  H   UNL     1      -4.946   3.751  -0.418  0.00  0.00    +0.023 HD
ENDBRANCH  19  21
BRANCH  19  25
ATOM     25  C   UNL     1      -6.266   1.369  -0.573  0.00  0.00    -0.061 C 
ATOM     26  H   UNL     1      -6.762   1.514  -1.557  0.00  0.00    +0.023 HD
ATOM     27  H   UNL     1      -6.473   0.338  -0.214  0.00  0.00    +0.023 HD
ATOM     28  H   UNL     1      -6.704   2.081   0.159  0.00  0.00    +0.023 HD
ENDBRANCH  19  25
ENDBRANCH  16  19
ENDBRANCH   4  16
ENDBRANCH   1   6
BRANCH   1  29
ATOM     29  C   UNL     1       1.012  -1.801   0.003  0.00  0.00    +0.022 C 
ATOM     30  H   UNL     1       1.453  -1.657  -1.007  0.00  0.00    +0.047 HD
ATOM     31  H   UNL     1       1.877  -1.968   0.674  0.00  0.00    +0.047 HD
BRANCH  29  32
ATOM     32  C   UNL     1       0.107  -3.051  -0.012  0.00  0.00    -0.030 C 
ATOM     33  H   UNL     1      -0.855  -2.800  -0.511  0.00  0.00    +0.031 HD
BRANCH  32  34
ATOM     34  C   UNL     1      -0.195  -3.546   1.408  0.00  0.00    -0.061 C 
ATOM     35  H   UNL     1       0.741  -3.848   1.925  0.00  0.00    +0.023 HD
ATOM     36  H   UNL     1      -0.692  -2.756   2.005  0.00  0.00    +0.023 HD
ATOM     37  H   UNL     1      -0.878  -4.421   1.370  0.00  0.00    +0.023 HD
ENDBRANCH  32  34
BRANCH  32  38
ATOM     38  C   UNL     1       0.765  -4.176  -0.822  0.00  0.00    -0.061 C 
ATOM     39  H   UNL     1       1.746  -4.454  -0.380  0.00  0.00    +0.023 HD
ATOM     40  H   UNL     1       0.110  -5.073  -0.838  0.00  0.00    +0.023 HD
ATOM     41  H   UNL     1       0.924  -3.850  -1.873  0.00  0.00    +0.023 HD
ENDBRANCH  32  38
ENDBRANCH  29  32
ENDBRANCH   1  29
BRANCH   2  42
ATOM     42  C   UNL     1       1.319  -0.423   2.731  0.00  0.00    +0.091 C 
ATOM     43  H   UNL     1       1.061   0.061   3.698  0.00  0.00    +0.056 HD
ATOM     44  H   UNL     1       1.180  -1.512   2.881  0.00  0.00    +0.056 HD
BRANCH  42  45
ATOM     45  N   UNL     1       2.713  -0.100   2.395  0.00  0.00    -0.292 N 
ATOM     46  C   UNL     1       3.087   1.266   2.139  0.00  0.00    +0.248 C 
ATOM     47  O   UNL     1       2.596   2.185   2.851  0.00  0.00    -0.270 OA
BRANCH  46  48
ATOM     48  C   UNL     1       4.024   1.616   1.048  0.00  0.00    +0.056 A 
ATOM     49  C   UNL     1       4.124   0.817  -0.101  0.00  0.00    -0.033 A 
ATOM     50  C   UNL     1       4.991   1.177  -1.134  0.00  0.00    +0.037 A 
ATOM     51  C   UNL     1       5.752   2.342  -1.012  0.00  0.00    +0.042 A 
ATOM     52  N   UNL     1       5.638   3.114   0.100  0.00  0.00    -0.261 NA
ATOM     53  C   UNL     1       4.798   2.786   1.118  0.00  0.00    +0.040 A 
ATOM     54 BR   UNL     1       5.120   0.097  -2.704  0.00  0.00    -0.049 Br
ATOM     55  H   UNL     1       3.514  -0.070  -0.210  0.00  0.00    +0.064 HD
ATOM     56  H   UNL     1       6.428   2.637  -1.803  0.00  0.00    +0.084 HD
ATOM     57  H   UNL     1       4.742   3.433   1.984  0.00  0.00    +0.084 HD
ENDBRANCH  46  48
BRANCH  45  58
ATOM     58  C   UNL     1       3.769  -1.099   2.594  0.00  0.00    +0.004 C 
ATOM     59  H   UNL     1       3.362  -2.047   3.004  0.00  0.00    +0.043 HD
ATOM     60  H   UNL     1       4.270  -1.331   1.633  0.00  0.00    +0.043 HD
ATOM     61  H   UNL     1       4.524  -0.711   3.311  0.00  0.00    +0.043 HD
ENDBRANCH  45  58
ENDBRANCH  42  45
ENDBRANCH   2  42
TORSDOF 14
