REMARK  Name = 
REMARK  14 active torsions:
REMARK  status: ('A' for Active; 'I' for Inactive)
REMARK    1  A    between atoms: C_1  and  C_2
REMARK    2  A    between atoms: C_2  and  C_3
REMARK    3  A    between atoms: C_2  and  C_4
REMARK    4  A    between atoms: C_4  and  N_5
REMARK    5  A    between atoms: C_6  and  N_32
REMARK    6  A    between atoms: C_7  and  N_13
REMARK    7  A    between atoms: N_13  and  C_14
REMARK    8  A    between atoms: C_14  and  C_15
REMARK    9  A    between atoms: C_15  and  C_16
REMARK   10  A    between atoms: C_15  and  C_17
REMARK   11  A    between atoms: C_18  and  C_20
REMARK   12  A    between atoms: C_20  and  N_21
REMARK   13  A    between atoms: N_21  and  C_22
REMARK   14  A    between atoms: C_23  and  C_25
REMARK                            x       y       z     vdW  Elec       q    Type
REMARK                         _______ _______ _______ _____ _____    ______ ____
ROOT
ATOM      1  N   UNL     1      -0.150  -1.438  -0.217  0.00  0.00    -0.263 N 
ATOM      2  C   UNL     1       0.741  -0.613   0.568  0.00  0.00    +0.237 C 
ATOM      3  O   UNL     1       0.262   0.127   1.472  0.00  0.00    -0.274 OA
ENDROOT
BRANCH   1   6
ATOM      4  N   UNL     1      -3.583  -0.204  -1.036  0.00  0.00    -0.280 N 
ATOM      5  C   UNL     1      -2.217  -0.403  -1.119  0.00  0.00    +0.127 A 
ATOM      6  C   UNL     1      -1.566  -1.188  -0.145  0.00  0.00    +0.140 A 
ATOM      7  C   UNL     1      -2.313  -1.695   0.919  0.00  0.00    +0.277 A 
ATOM      8  O   UNL     1      -1.754  -2.366   1.829  0.00  0.00    -0.266 OA
ATOM      9  N   UNL     1      -3.645  -1.462   0.980  0.00  0.00    -0.273 N 
ATOM     10  C   UNL     1      -4.282  -0.739   0.022  0.00  0.00    +0.331 A 
ATOM     11  O   UNL     1      -5.529  -0.568   0.121  0.00  0.00    -0.246 OA
ATOM     12  H   UNL     1      -4.196  -1.851   1.780  0.00  0.00    +0.173 HD
BRANCH   5  13
ATOM     13  N   UNL     1      -1.423   0.200  -2.161  0.00  0.00    -0.343 N 
ATOM     14  H   UNL     1      -0.403   0.003  -2.249  0.00  0.00    +0.144 HD
ATOM     15  H   UNL     1      -1.778   0.938  -2.801  0.00  0.00    +0.144 HD
ENDBRANCH   5  13
BRANCH   4  16
ATOM     16  C   UNL     1      -4.334   0.560  -2.059  0.00  0.00    +0.032 C 
ATOM     17  H   UNL     1      -3.829   0.563  -3.044  0.00  0.00    +0.050 HD
ATOM     18  H   UNL     1      -5.292   0.034  -2.272  0.00  0.00    +0.050 HD
BRANCH  16  19
ATOM     19  C   UNL     1      -4.653   1.998  -1.586  0.00  0.00    -0.029 C 
ATOM     20  H   UNL     1      -5.185   1.944  -0.611  0.00  0.00    +0.031 HD
BRANCH  19  21
ATOM     21  C   UNL     1      -3.387   2.840  -1.384  0.00  0.00    -0.061 C 
ATOM     22  H   UNL     1      -2.845   2.974  -2.343  0.00  0.00    +0.023 HD
ATOM     23  H   UNL     1      -3.659   3.843  -0.992  0.00  0.00    +0.023 HD
ATOM     24  H   UNL     1      -2.714   2.362  -0.642  0.00  0.00    +0.023 HD
ENDBRANCH  19  21
BRANCH  19  25
ATOM     25  C   UNL     1      -5.589   2.690  -2.584  0.00  0.00    -0.061 C 
ATOM     26  H   UNL     1      -5.107   2.769  -3.583  0.00  0.00    +0.023 HD
ATOM     27  H   UNL     1      -5.845   3.711  -2.228  0.00  0.00    +0.023 HD
ATOM     28  H   UNL     1      -6.534   2.116  -2.686  0.00  0.00    +0.023 HD
ENDBRANCH  19  25
ENDBRANCH  16  19
ENDBRANCH   4  16
ENDBRANCH   1   6
BRANCH   1  29
ATOM     29  C   UNL     1       0.326  -2.511  -1.108  0.00  0.00    +0.022 C 
ATOM     30  H   UNL     1      -0.264  -2.481  -2.051  0.00  0.00    +0.047 HD
ATOM     31  H   UNL     1       1.382  -2.355  -1.409  0.00  0.00    +0.047 HD
BRANCH  29  32
ATOM     32  C   UNL     1       0.161  -3.903  -0.464  0.00  0.00    -0.030 C 
ATOM     33  H   UNL     1      -0.895  -4.028  -0.142  0.00  0.00    +0.031 HD
BRANCH  32  34
ATOM     34  C   UNL     1       0.462  -5.002  -1.490  0.00  0.00    -0.061 C 
ATOM     35  H   UNL     1       0.317  -6.005  -1.034  0.00  0.00    +0.023 HD
ATOM     36  H   UNL     1       1.508  -4.922  -1.855  0.00  0.00    +0.023 HD
ATOM     37  H   UNL     1      -0.228  -4.917  -2.357  0.00  0.00    +0.023 HD
ENDBRANCH  32  34
BRANCH  32  38
ATOM     38  C   UNL     1       1.066  -4.072   0.764  0.00  0.00    -0.061 C 
ATOM     39  H   UNL     1       0.899  -5.069   1.225  0.00  0.00    +0.023 HD
ATOM     40  H   UNL     1       0.836  -3.304   1.530  0.00  0.00    +0.023 HD
ATOM     41  H   UNL     1       2.136  -3.990   0.477  0.00  0.00    +0.023 HD
ENDBRANCH  32  38
ENDBRANCH  29  32
ENDBRANCH   1  29
BRANCH   2  42
ATOM     42  C   UNL     1       2.229  -0.592   0.314  0.00  0.00    +0.091 C 
ATOM     43  H   UNL     1       2.415  -0.340  -0.753  0.00  0.00    +0.056 HD
ATOM     44  H   UNL     1       2.652  -1.602   0.494  0.00  0.00    +0.056 HD
BRANCH  42  45
ATOM     45  N   UNL     1       2.912   0.383   1.174  0.00  0.00    -0.292 N 
ATOM     46  C   UNL     1       3.010   1.760   0.755  0.00  0.00    +0.248 C 
ATOM     47  O   UNL     1       2.142   2.234  -0.028  0.00  0.00    -0.270 OA
BRANCH  46  48
ATOM     48  C   UNL     1       4.101   2.638   1.226  0.00  0.00    +0.056 A 
ATOM     49  C   UNL     1       5.415   2.159   1.344  0.00  0.00    -0.033 A 
ATOM     50  C   UNL     1       6.435   3.010   1.775  0.00  0.00    +0.037 A 
ATOM     51  C   UNL     1       6.134   4.341   2.072  0.00  0.00    +0.042 A 
ATOM     52  N   UNL     1       4.861   4.798   1.934  0.00  0.00    -0.261 NA
ATOM     53  C   UNL     1       3.851   3.988   1.517  0.00  0.00    +0.040 A 
ATOM     54 BR   UNL     1       8.224   2.364   1.942  0.00  0.00    -0.049 Br
ATOM     55  H   UNL     1       5.652   1.136   1.080  0.00  0.00    +0.064 HD
ATOM     56  H   UNL     1       6.911   5.015   2.406  0.00  0.00    +0.084 HD
ATOM     57  H   UNL     1       2.852   4.395   1.424  0.00  0.00    +0.084 HD
ENDBRANCH  46  48
BRANCH  45  58
ATOM     58  C   UNL     1       3.261   0.007   2.549  0.00  0.00    +0.004 C 
ATOM     59  H   UNL     1       2.861  -0.998   2.801  0.00  0.00    +0.043 HD
ATOM     60  H   UNL     1       4.361  -0.022   2.674  0.00  0.00    +0.043 HD
ATOM     61  H   UNL     1       2.827   0.739   3.263  0.00  0.00    +0.043 HD
ENDBRANCH  45  58
ENDBRANCH  42  45
ENDBRANCH   2  42
TORSDOF 14
