REMARK  Name = 
REMARK  14 active torsions:
REMARK  status: ('A' for Active; 'I' for Inactive)
REMARK    1  A    between atoms: C_1  and  C_2
REMARK    2  A    between atoms: C_2  and  C_3
REMARK    3  A    between atoms: C_2  and  C_4
REMARK    4  A    between atoms: C_4  and  N_5
REMARK    5  A    between atoms: C_6  and  N_32
REMARK    6  A    between atoms: C_7  and  N_13
REMARK    7  A    between atoms: N_13  and  C_14
REMARK    8  A    between atoms: C_14  and  C_15
REMARK    9  A    between atoms: C_15  and  C_16
REMARK   10  A    between atoms: C_15  and  C_17
REMARK   11  A    between atoms: C_18  and  C_20
REMARK   12  A    between atoms: C_20  and  N_21
REMARK   13  A    between atoms: N_21  and  C_22
REMARK   14  A    between atoms: C_23  and  C_25
REMARK                            x       y       z     vdW  Elec       q    Type
REMARK                         _______ _______ _______ _____ _____    ______ ____
ROOT
ATOM      1  N   UNL     1      -0.586  -1.513   0.966  0.00  0.00    -0.263 N 
ATOM      2  C   UNL     1       0.137  -0.345   1.423  0.00  0.00    +0.237 C 
ATOM      3  O   UNL     1      -0.423   0.786   1.377  0.00  0.00    -0.274 OA
ENDROOT
BRANCH   1   6
ATOM      4  N   UNL     1      -3.294  -0.499  -1.419  0.00  0.00    -0.280 N 
ATOM      5  C   UNL     1      -2.028  -0.732  -0.909  0.00  0.00    +0.127 A 
ATOM      6  C   UNL     1      -1.884  -1.334   0.361  0.00  0.00    +0.140 A 
ATOM      7  C   UNL     1      -3.033  -1.706   1.061  0.00  0.00    +0.277 A 
ATOM      8  O   UNL     1      -2.943  -2.207   2.214  0.00  0.00    -0.266 OA
ATOM      9  N   UNL     1      -4.251  -1.519   0.505  0.00  0.00    -0.273 N 
ATOM     10  C   UNL     1      -4.394  -0.932  -0.710  0.00  0.00    +0.331 A 
ATOM     11  O   UNL     1      -5.559  -0.787  -1.176  0.00  0.00    -0.246 OA
ATOM     12  H   UNL     1      -5.104  -1.821   1.032  0.00  0.00    +0.173 HD
BRANCH   5  13
ATOM     13  N   UNL     1      -0.838  -0.405  -1.656  0.00  0.00    -0.343 N 
ATOM     14  H   UNL     1      -0.838  -0.044  -2.630  0.00  0.00    +0.144 HD
ATOM     15  H   UNL     1       0.112  -0.595  -1.272  0.00  0.00    +0.144 HD
ENDBRANCH   5  13
BRANCH   4  16
ATOM     16  C   UNL     1      -3.510   0.214  -2.704  0.00  0.00    +0.032 C 
ATOM     17  H   UNL     1      -2.746  -0.050  -3.458  0.00  0.00    +0.050 HD
ATOM     18  H   UNL     1      -4.444  -0.142  -3.192  0.00  0.00    +0.050 HD
BRANCH  16  19
ATOM     19  C   UNL     1      -3.611   1.756  -2.545  0.00  0.00    -0.029 C 
ATOM     20  H   UNL     1      -3.798   2.171  -3.561  0.00  0.00    +0.031 HD
BRANCH  19  21
ATOM     21  C   UNL     1      -4.795   2.178  -1.667  0.00  0.00    -0.061 C 
ATOM     22  H   UNL     1      -5.738   1.738  -2.054  0.00  0.00    +0.023 HD
ATOM     23  H   UNL     1      -4.905   3.283  -1.683  0.00  0.00    +0.023 HD
ATOM     24  H   UNL     1      -4.642   1.859  -0.614  0.00  0.00    +0.023 HD
ENDBRANCH  19  21
BRANCH  19  25
ATOM     25  C   UNL     1      -2.314   2.397  -2.036  0.00  0.00    -0.061 C 
ATOM     26  H   UNL     1      -2.427   3.501  -1.998  0.00  0.00    +0.023 HD
ATOM     27  H   UNL     1      -2.066   2.040  -1.014  0.00  0.00    +0.023 HD
ATOM     28  H   UNL     1      -1.476   2.174  -2.727  0.00  0.00    +0.023 HD
ENDBRANCH  19  25
ENDBRANCH  16  19
ENDBRANCH   4  16
ENDBRANCH   1   6
BRANCH   1  29
ATOM     29  C   UNL     1      -0.080  -2.878   1.195  0.00  0.00    +0.022 C 
ATOM     30  H   UNL     1      -0.924  -3.591   1.325  0.00  0.00    +0.047 HD
ATOM     31  H   UNL     1       0.471  -2.908   2.160  0.00  0.00    +0.047 HD
BRANCH  29  32
ATOM     32  C   UNL     1       0.822  -3.351   0.032  0.00  0.00    -0.030 C 
ATOM     33  H   UNL     1       1.415  -2.492  -0.351  0.00  0.00    +0.031 HD
BRANCH  32  34
ATOM     34  C   UNL     1      -0.010  -3.911  -1.130  0.00  0.00    -0.061 C 
ATOM     35  H   UNL     1      -0.715  -3.148  -1.514  0.00  0.00    +0.023 HD
ATOM     36  H   UNL     1       0.656  -4.208  -1.968  0.00  0.00    +0.023 HD
ATOM     37  H   UNL     1      -0.592  -4.800  -0.805  0.00  0.00    +0.023 HD
ENDBRANCH  32  34
BRANCH  32  38
ATOM     38  C   UNL     1       1.813  -4.415   0.519  0.00  0.00    -0.061 C 
ATOM     39  H   UNL     1       2.462  -4.750  -0.318  0.00  0.00    +0.023 HD
ATOM     40  H   UNL     1       2.469  -3.994   1.312  0.00  0.00    +0.023 HD
ATOM     41  H   UNL     1       1.272  -5.295   0.930  0.00  0.00    +0.023 HD
ENDBRANCH  32  38
ENDBRANCH  29  32
ENDBRANCH   1  29
BRANCH   2  42
ATOM     42  C   UNL     1       1.521  -0.443   2.018  0.00  0.00    +0.091 C 
ATOM     43  H   UNL     1       1.430  -0.710   3.093  0.00  0.00    +0.056 HD
ATOM     44  H   UNL     1       2.104  -1.253   1.534  0.00  0.00    +0.056 HD
BRANCH  42  45
ATOM     45  N   UNL     1       2.254   0.821   1.869  0.00  0.00    -0.292 N 
ATOM     46  C   UNL     1       2.903   1.125   0.617  0.00  0.00    +0.248 C 
ATOM     47  O   UNL     1       2.507   0.565  -0.442  0.00  0.00    -0.270 OA
BRANCH  46  48
ATOM     48  C   UNL     1       4.021   2.088   0.533  0.00  0.00    +0.056 A 
ATOM     49  C   UNL     1       4.095   2.995  -0.534  0.00  0.00    -0.033 A 
ATOM     50  C   UNL     1       5.163   3.891  -0.617  0.00  0.00    +0.037 A 
ATOM     51  C   UNL     1       6.158   3.861   0.362  0.00  0.00    +0.042 A 
ATOM     52  N   UNL     1       6.086   2.961   1.378  0.00  0.00    -0.261 NA
ATOM     53  C   UNL     1       5.054   2.081   1.483  0.00  0.00    +0.040 A 
ATOM     54 BR   UNL     1       5.263   5.143  -2.056  0.00  0.00    -0.049 Br
ATOM     55  H   UNL     1       3.320   3.015  -1.291  0.00  0.00    +0.064 HD
ATOM     56  H   UNL     1       6.993   4.547   0.313  0.00  0.00    +0.084 HD
ATOM     57  H   UNL     1       5.054   1.363   2.292  0.00  0.00    +0.084 HD
ENDBRANCH  46  48
BRANCH  45  58
ATOM     58  C   UNL     1       2.131   1.852   2.906  0.00  0.00    +0.004 C 
ATOM     59  H   UNL     1       1.361   1.575   3.657  0.00  0.00    +0.043 HD
ATOM     60  H   UNL     1       1.827   2.817   2.447  0.00  0.00    +0.043 HD
ATOM     61  H   UNL     1       3.094   1.982   3.437  0.00  0.00    +0.043 HD
ENDBRANCH  45  58
ENDBRANCH  42  45
ENDBRANCH   2  42
TORSDOF 14
