REMARK  Name = 
REMARK  14 active torsions:
REMARK  status: ('A' for Active; 'I' for Inactive)
REMARK    1  A    between atoms: C_1  and  C_2
REMARK    2  A    between atoms: C_2  and  C_3
REMARK    3  A    between atoms: C_2  and  C_4
REMARK    4  A    between atoms: C_4  and  N_5
REMARK    5  A    between atoms: C_6  and  N_32
REMARK    6  A    between atoms: C_7  and  N_13
REMARK    7  A    between atoms: N_13  and  C_14
REMARK    8  A    between atoms: C_14  and  C_15
REMARK    9  A    between atoms: C_15  and  C_16
REMARK   10  A    between atoms: C_15  and  C_17
REMARK   11  A    between atoms: C_18  and  C_20
REMARK   12  A    between atoms: C_20  and  N_21
REMARK   13  A    between atoms: N_21  and  C_22
REMARK   14  A    between atoms: C_23  and  C_25
REMARK                            x       y       z     vdW  Elec       q    Type
REMARK                         _______ _______ _______ _____ _____    ______ ____
ROOT
ATOM      1  N   UNL     1      -0.254  -1.218  -0.328  0.00  0.00    -0.263 N 
ATOM      2  C   UNL     1       1.022  -0.541  -0.419  0.00  0.00    +0.237 C 
ATOM      3  O   UNL     1       1.119   0.647  -0.003  0.00  0.00    -0.274 OA
ENDROOT
BRANCH   1   6
ATOM      4  N   UNL     1      -3.409   0.740   0.119  0.00  0.00    -0.280 N 
ATOM      5  C   UNL     1      -2.344   0.112  -0.499  0.00  0.00    +0.127 A 
ATOM      6  C   UNL     1      -1.359  -0.524   0.283  0.00  0.00    +0.140 A 
ATOM      7  C   UNL     1      -1.460  -0.459   1.673  0.00  0.00    +0.277 A 
ATOM      8  O   UNL     1      -0.579  -0.990   2.401  0.00  0.00    -0.266 OA
ATOM      9  N   UNL     1      -2.511   0.175   2.245  0.00  0.00    -0.273 N 
ATOM     10  C   UNL     1      -3.478   0.763   1.493  0.00  0.00    +0.331 A 
ATOM     11  O   UNL     1      -4.435   1.339   2.082  0.00  0.00    -0.246 OA
ATOM     12  H   UNL     1      -2.579   0.212   3.288  0.00  0.00    +0.173 HD
BRANCH   5  13
ATOM     13  N   UNL     1      -2.197   0.118  -1.933  0.00  0.00    -0.343 N 
ATOM     14  H   UNL     1      -1.327  -0.235  -2.389  0.00  0.00    +0.144 HD
ATOM     15  H   UNL     1      -2.913   0.501  -2.584  0.00  0.00    +0.144 HD
ENDBRANCH   5  13
BRANCH   4  16
ATOM     16  C   UNL     1      -4.466   1.411  -0.671  0.00  0.00    +0.032 C 
ATOM     17  H   UNL     1      -5.403   1.527  -0.083  0.00  0.00    +0.050 HD
ATOM     18  H   UNL     1      -4.775   0.761  -1.517  0.00  0.00    +0.050 HD
BRANCH  16  19
ATOM     19  C   UNL     1      -4.008   2.798  -1.177  0.00  0.00    -0.029 C 
ATOM     20  H   UNL     1      -3.040   2.697  -1.713  0.00  0.00    +0.031 HD
BRANCH  19  21
ATOM     21  C   UNL     1      -5.032   3.363  -2.170  0.00  0.00    -0.061 C 
ATOM     22  H   UNL     1      -4.689   4.347  -2.557  0.00  0.00    +0.023 HD
ATOM     23  H   UNL     1      -5.146   2.675  -3.035  0.00  0.00    +0.023 HD
ATOM     24  H   UNL     1      -6.021   3.494  -1.681  0.00  0.00    +0.023 HD
ENDBRANCH  19  21
BRANCH  19  25
ATOM     25  C   UNL     1      -3.802   3.780  -0.017  0.00  0.00    -0.061 C 
ATOM     26  H   UNL     1      -3.508   4.779  -0.407  0.00  0.00    +0.023 HD
ATOM     27  H   UNL     1      -2.986   3.427   0.647  0.00  0.00    +0.023 HD
ATOM     28  H   UNL     1      -4.734   3.889   0.578  0.00  0.00    +0.023 HD
ENDBRANCH  19  25
ENDBRANCH  16  19
ENDBRANCH   4  16
ENDBRANCH   1   6
BRANCH   1  29
ATOM     29  C   UNL     1      -0.500  -2.558  -0.891  0.00  0.00    +0.022 C 
ATOM     30  H   UNL     1      -1.452  -2.535  -1.464  0.00  0.00    +0.047 HD
ATOM     31  H   UNL     1       0.280  -2.846  -1.626  0.00  0.00    +0.047 HD
BRANCH  29  32
ATOM     32  C   UNL     1      -0.618  -3.629   0.215  0.00  0.00    -0.030 C 
ATOM     33  H   UNL     1      -1.379  -3.298   0.956  0.00  0.00    +0.031 HD
BRANCH  32  34
ATOM     34  C   UNL     1      -1.103  -4.957  -0.380  0.00  0.00    -0.061 C 
ATOM     35  H   UNL     1      -0.384  -5.332  -1.139  0.00  0.00    +0.023 HD
ATOM     36  H   UNL     1      -1.212  -5.720   0.421  0.00  0.00    +0.023 HD
ATOM     37  H   UNL     1      -2.095  -4.822  -0.861  0.00  0.00    +0.023 HD
ENDBRANCH  32  34
BRANCH  32  38
ATOM     38  C   UNL     1       0.711  -3.841   0.952  0.00  0.00    -0.061 C 
ATOM     39  H   UNL     1       1.484  -4.236   0.260  0.00  0.00    +0.023 HD
ATOM     40  H   UNL     1       1.071  -2.889   1.393  0.00  0.00    +0.023 HD
ATOM     41  H   UNL     1       0.574  -4.567   1.780  0.00  0.00    +0.023 HD
ENDBRANCH  32  38
ENDBRANCH  29  32
ENDBRANCH   1  29
BRANCH   2  42
ATOM     42  C   UNL     1       2.225  -1.178  -1.069  0.00  0.00    +0.091 C 
ATOM     43  H   UNL     1       2.079  -1.140  -2.169  0.00  0.00    +0.056 HD
ATOM     44  H   UNL     1       2.306  -2.245  -0.785  0.00  0.00    +0.056 HD
BRANCH  42  45
ATOM     45  N   UNL     1       3.465  -0.491  -0.674  0.00  0.00    -0.292 N 
ATOM     46  C   UNL     1       3.953  -0.631   0.676  0.00  0.00    +0.248 C 
ATOM     47  O   UNL     1       3.733  -1.700   1.309  0.00  0.00    -0.270 OA
BRANCH  46  48
ATOM     48  C   UNL     1       4.709   0.451   1.344  0.00  0.00    +0.056 A 
ATOM     49  C   UNL     1       4.351   1.796   1.171  0.00  0.00    -0.033 A 
ATOM     50  C   UNL     1       5.065   2.801   1.829  0.00  0.00    +0.037 A 
ATOM     51  C   UNL     1       6.126   2.449   2.666  0.00  0.00    +0.042 A 
ATOM     52  N   UNL     1       6.449   1.140   2.840  0.00  0.00    -0.261 NA
ATOM     53  C   UNL     1       5.769   0.145   2.211  0.00  0.00    +0.040 A 
ATOM     54 BR   UNL     1       4.586   4.635   1.595  0.00  0.00    -0.049 Br
ATOM     55  H   UNL     1       3.508   2.066   0.548  0.00  0.00    +0.064 HD
ATOM     56  H   UNL     1       6.689   3.213   3.184  0.00  0.00    +0.084 HD
ATOM     57  H   UNL     1       6.063  -0.883   2.379  0.00  0.00    +0.084 HD
ENDBRANCH  46  48
BRANCH  45  58
ATOM     58  C   UNL     1       4.298   0.172  -1.685  0.00  0.00    +0.004 C 
ATOM     59  H   UNL     1       3.922  -0.015  -2.712  0.00  0.00    +0.043 HD
ATOM     60  H   UNL     1       4.303   1.268  -1.522  0.00  0.00    +0.043 HD
ATOM     61  H   UNL     1       5.338  -0.212  -1.626  0.00  0.00    +0.043 HD
ENDBRANCH  45  58
ENDBRANCH  42  45
ENDBRANCH   2  42
TORSDOF 14
