REMARK  Name = 
REMARK  14 active torsions:
REMARK  status: ('A' for Active; 'I' for Inactive)
REMARK    1  A    between atoms: C_1  and  C_2
REMARK    2  A    between atoms: C_2  and  C_3
REMARK    3  A    between atoms: C_2  and  C_4
REMARK    4  A    between atoms: C_4  and  N_5
REMARK    5  A    between atoms: C_6  and  N_32
REMARK    6  A    between atoms: C_7  and  N_13
REMARK    7  A    between atoms: N_13  and  C_14
REMARK    8  A    between atoms: C_14  and  C_15
REMARK    9  A    between atoms: C_15  and  C_16
REMARK   10  A    between atoms: C_15  and  C_17
REMARK   11  A    between atoms: C_18  and  C_20
REMARK   12  A    between atoms: C_20  and  N_21
REMARK   13  A    between atoms: N_21  and  C_22
REMARK   14  A    between atoms: C_23  and  C_25
REMARK                            x       y       z     vdW  Elec       q    Type
REMARK                         _______ _______ _______ _____ _____    ______ ____
ROOT
ATOM      1  N   UNL     1       0.215   1.729   0.227  0.00  0.00    -0.263 N 
ATOM      2  C   UNL     1       1.244   0.989  -0.471  0.00  0.00    +0.237 C 
ATOM      3  O   UNL     1       2.281   1.587  -0.869  0.00  0.00    -0.274 OA
ENDROOT
BRANCH   1   6
ATOM      4  N   UNL     1      -3.175   0.234  -0.342  0.00  0.00    -0.280 N 
ATOM      5  C   UNL     1      -1.974   0.873  -0.601  0.00  0.00    +0.127 A 
ATOM      6  C   UNL     1      -1.084   1.147   0.463  0.00  0.00    +0.140 A 
ATOM      7  C   UNL     1      -1.457   0.788   1.759  0.00  0.00    +0.277 A 
ATOM      8  O   UNL     1      -0.670   0.978   2.726  0.00  0.00    -0.266 OA
ATOM      9  N   UNL     1      -2.664   0.221   1.981  0.00  0.00    -0.273 N 
ATOM     10  C   UNL     1      -3.518  -0.052   0.962  0.00  0.00    +0.331 A 
ATOM     11  O   UNL     1      -4.632  -0.579   1.235  0.00  0.00    -0.246 OA
ATOM     12  H   UNL     1      -2.940  -0.025   2.960  0.00  0.00    +0.173 HD
BRANCH   5  13
ATOM     13  N   UNL     1      -1.610   1.296  -1.931  0.00  0.00    -0.343 N 
ATOM     14  H   UNL     1      -2.231   1.216  -2.760  0.00  0.00    +0.144 HD
ATOM     15  H   UNL     1      -0.711   1.788  -2.118  0.00  0.00    +0.144 HD
ENDBRANCH   5  13
BRANCH   4  16
ATOM     16  C   UNL     1      -4.108  -0.165  -1.427  0.00  0.00    +0.032 C 
ATOM     17  H   UNL     1      -5.158  -0.150  -1.060  0.00  0.00    +0.050 HD
ATOM     18  H   UNL     1      -4.143   0.584  -2.240  0.00  0.00    +0.050 HD
BRANCH  16  19
ATOM     19  C   UNL     1      -3.821  -1.579  -2.000  0.00  0.00    -0.029 C 
ATOM     20  H   UNL     1      -4.599  -1.776  -2.771  0.00  0.00    +0.031 HD
BRANCH  19  21
ATOM     21  C   UNL     1      -3.958  -2.680  -0.940  0.00  0.00    -0.061 C 
ATOM     22  H   UNL     1      -3.870  -3.679  -1.417  0.00  0.00    +0.023 HD
ATOM     23  H   UNL     1      -4.954  -2.624  -0.453  0.00  0.00    +0.023 HD
ATOM     24  H   UNL     1      -3.163  -2.590  -0.170  0.00  0.00    +0.023 HD
ENDBRANCH  19  21
BRANCH  19  25
ATOM     25  C   UNL     1      -2.463  -1.683  -2.702  0.00  0.00    -0.061 C 
ATOM     26  H   UNL     1      -2.340  -2.696  -3.142  0.00  0.00    +0.023 HD
ATOM     27  H   UNL     1      -2.402  -0.952  -3.534  0.00  0.00    +0.023 HD
ATOM     28  H   UNL     1      -1.631  -1.513  -1.988  0.00  0.00    +0.023 HD
ENDBRANCH  19  25
ENDBRANCH  16  19
ENDBRANCH   4  16
ENDBRANCH   1   6
BRANCH   1  29
ATOM     29  C   UNL     1       0.520   3.064   0.769  0.00  0.00    +0.022 C 
ATOM     30  H   UNL     1       1.565   3.062   1.154  0.00  0.00    +0.047 HD
ATOM     31  H   UNL     1      -0.122   3.290   1.648  0.00  0.00    +0.047 HD
BRANCH  29  32
ATOM     32  C   UNL     1       0.345   4.164  -0.301  0.00  0.00    -0.030 C 
ATOM     33  H   UNL     1       0.701   3.782  -1.283  0.00  0.00    +0.031 HD
BRANCH  32  34
ATOM     34  C   UNL     1      -1.128   4.573  -0.445  0.00  0.00    -0.061 C 
ATOM     35  H   UNL     1      -1.755   3.702  -0.715  0.00  0.00    +0.023 HD
ATOM     36  H   UNL     1      -1.236   5.332  -1.250  0.00  0.00    +0.023 HD
ATOM     37  H   UNL     1      -1.511   5.003   0.505  0.00  0.00    +0.023 HD
ENDBRANCH  32  34
BRANCH  32  38
ATOM     38  C   UNL     1       1.191   5.394   0.050  0.00  0.00    -0.061 C 
ATOM     39  H   UNL     1       2.268   5.122   0.086  0.00  0.00    +0.023 HD
ATOM     40  H   UNL     1       0.892   5.807   1.038  0.00  0.00    +0.023 HD
ATOM     41  H   UNL     1       1.064   6.183  -0.723  0.00  0.00    +0.023 HD
ENDBRANCH  32  38
ENDBRANCH  29  32
ENDBRANCH   1  29
BRANCH   2  42
ATOM     42  C   UNL     1       1.110  -0.485  -0.764  0.00  0.00    +0.091 C 
ATOM     43  H   UNL     1       0.242  -0.935  -0.239  0.00  0.00    +0.056 HD
ATOM     44  H   UNL     1       0.925  -0.618  -1.852  0.00  0.00    +0.056 HD
BRANCH  42  45
ATOM     45  N   UNL     1       2.326  -1.202  -0.361  0.00  0.00    -0.292 N 
ATOM     46  C   UNL     1       2.519  -1.547   1.026  0.00  0.00    +0.248 C 
ATOM     47  O   UNL     1       1.972  -0.849   1.923  0.00  0.00    -0.270 OA
BRANCH  46  48
ATOM     48  C   UNL     1       3.350  -2.701   1.430  0.00  0.00    +0.056 A 
ATOM     49  C   UNL     1       4.181  -2.616   2.557  0.00  0.00    -0.033 A 
ATOM     50  C   UNL     1       4.949  -3.716   2.945  0.00  0.00    +0.037 A 
ATOM     51  C   UNL     1       4.868  -4.900   2.208  0.00  0.00    +0.042 A 
ATOM     52  N   UNL     1       4.040  -4.976   1.132  0.00  0.00    -0.261 NA
ATOM     53  C   UNL     1       3.286  -3.917   0.733  0.00  0.00    +0.040 A 
ATOM     54 BR   UNL     1       6.098  -3.604   4.466  0.00  0.00    -0.049 Br
ATOM     55  H   UNL     1       4.242  -1.695   3.125  0.00  0.00    +0.064 HD
ATOM     56  H   UNL     1       5.454  -5.763   2.494  0.00  0.00    +0.084 HD
ATOM     57  H   UNL     1       2.620  -4.034  -0.111  0.00  0.00    +0.084 HD
ENDBRANCH  46  48
BRANCH  45  58
ATOM     58  C   UNL     1       3.422  -1.371  -1.322  0.00  0.00    +0.004 C 
ATOM     59  H   UNL     1       3.543  -2.441  -1.585  0.00  0.00    +0.043 HD
ATOM     60  H   UNL     1       3.224  -0.809  -2.259  0.00  0.00    +0.043 HD
ATOM     61  H   UNL     1       4.369  -0.988  -0.887  0.00  0.00    +0.043 HD
ENDBRANCH  45  58
ENDBRANCH  42  45
ENDBRANCH   2  42
TORSDOF 14
