REMARK  Name = 
REMARK  17 active torsions:
REMARK  status: ('A' for Active; 'I' for Inactive)
REMARK    1  A    between atoms: C_1  and  C_2
REMARK    2  A    between atoms: C_2  and  C_3
REMARK    3  A    between atoms: C_3  and  C_4
REMARK    4  A    between atoms: C_4  and  O_5
REMARK    5  A    between atoms: O_5  and  C_6
REMARK    6  A    between atoms: C_9  and  C_12
REMARK    7  A    between atoms: C_14  and  C_36
REMARK    8  A    between atoms: C_15  and  C_31
REMARK    9  A    between atoms: C_16  and  S_18
REMARK   10  A    between atoms: S_18  and  C_19
REMARK   11  A    between atoms: C_19  and  C_20
REMARK   12  A    between atoms: N_22  and  C_23
REMARK   13  A    between atoms: C_26  and  O_29
REMARK   14  A    between atoms: O_29  and  C_30
REMARK   15  A    between atoms: C_31  and  O_33
REMARK   16  A    between atoms: O_33  and  C_34
REMARK   17  A    between atoms: C_34  and  C_35
REMARK                            x       y       z     vdW  Elec       q    Type
REMARK                         _______ _______ _______ _____ _____    ______ ____
ROOT
ATOM      1  C   UNL     1       2.122  -1.315  -0.152  0.00  0.00    +0.161 A 
ATOM      2  N   UNL     1       2.083  -2.252  -1.134  0.00  0.00    -0.232 NA
ATOM      3  C   UNL     1       0.929  -2.871  -1.493  0.00  0.00    +0.057 A 
ATOM      4  C   UNL     1      -0.275  -2.546  -0.827  0.00  0.00    +0.112 A 
ATOM      5  C   UNL     1      -0.213  -1.564   0.186  0.00  0.00    +0.115 A 
ATOM      6  N   UNL     1       0.975  -0.986   0.496  0.00  0.00    -0.220 NA
ENDROOT
BRANCH   1  10
ATOM      7  C   UNL     1       5.838   0.599   0.899  0.00  0.00    +0.121 A 
ATOM      8  C   UNL     1       4.653   0.936   1.560  0.00  0.00    -0.019 A 
ATOM      9  C   UNL     1       3.446   0.318   1.222  0.00  0.00    -0.048 A 
ATOM     10  C   UNL     1       3.402  -0.659   0.211  0.00  0.00    +0.019 A 
ATOM     11  C   UNL     1       4.596  -1.002  -0.450  0.00  0.00    -0.048 A 
ATOM     12  C   UNL     1       5.802  -0.382  -0.110  0.00  0.00    -0.019 A 
ATOM     13  H   UNL     1       4.667   1.687   2.341  0.00  0.00    +0.065 HD
ATOM     14  H   UNL     1       2.549   0.608   1.754  0.00  0.00    +0.063 HD
ATOM     15  H   UNL     1       4.602  -1.752  -1.231  0.00  0.00    +0.063 HD
ATOM     16  H   UNL     1       6.697  -0.680  -0.635  0.00  0.00    +0.065 HD
BRANCH   7  17
ATOM     17  O   UNL     1       7.019   1.255   1.282  0.00  0.00    -0.492 OA
BRANCH  17  18
ATOM     18  C   UNL     1       8.281   1.152   0.620  0.00  0.00    +0.090 C 
ATOM     19  H   UNL     1       9.063   1.571   1.286  0.00  0.00    +0.070 HD
ATOM     20  H   UNL     1       8.548   0.087   0.456  0.00  0.00    +0.070 HD
BRANCH  18  21
ATOM     21  C   UNL     1       8.284   1.918  -0.712  0.00  0.00    -0.019 C 
ATOM     22  H   UNL     1       9.298   1.858  -1.163  0.00  0.00    +0.030 HD
ATOM     23  H   UNL     1       7.585   1.423  -1.419  0.00  0.00    +0.030 HD
BRANCH  21  24
ATOM     24  C   UNL     1       7.867   3.391  -0.573  0.00  0.00    -0.053 C 
ATOM     25  H   UNL     1       6.870   3.467  -0.088  0.00  0.00    +0.026 HD
ATOM     26  H   UNL     1       7.775   3.825  -1.592  0.00  0.00    +0.026 HD
BRANCH  24  27
ATOM     27  C   UNL     1       8.882   4.223   0.210  0.00  0.00    -0.065 C 
ATOM     28  H   UNL     1       8.902   3.916   1.277  0.00  0.00    +0.023 HD
ATOM     29  H   UNL     1       8.594   5.294   0.166  0.00  0.00    +0.023 HD
ATOM     30  H   UNL     1       9.897   4.111  -0.227  0.00  0.00    +0.023 HD
ENDBRANCH  24  27
ENDBRANCH  21  24
ENDBRANCH  18  21
ENDBRANCH  17  18
ENDBRANCH   7  17
ENDBRANCH   1  10
BRANCH   3  31
ATOM     31  C   UNL     1       0.986  -3.885  -2.600  0.00  0.00    -0.021 C 
ATOM     32  H   UNL     1       1.947  -3.802  -3.151  0.00  0.00    +0.029 HD
ATOM     33  H   UNL     1       0.161  -3.717  -3.324  0.00  0.00    +0.029 HD
ATOM     34  H   UNL     1       0.914  -4.908  -2.176  0.00  0.00    +0.029 HD
ENDBRANCH   3  31
BRANCH   4  35
ATOM     35  C   UNL     1      -1.548  -3.225  -1.164  0.00  0.00    +0.344 C 
ATOM     36  O   UNL     1      -2.607  -2.553  -1.295  0.00  0.00    -0.245 OA
BRANCH  35  37
ATOM     37  O   UNL     1      -1.568  -4.613  -1.347  0.00  0.00    -0.461 OA
BRANCH  37  38
ATOM     38  C   UNL     1      -2.755  -5.352  -1.623  0.00  0.00    +0.090 C 
ATOM     39  H   UNL     1      -2.466  -6.364  -1.980  0.00  0.00    +0.069 HD
ATOM     40  H   UNL     1      -3.341  -4.857  -2.428  0.00  0.00    +0.069 HD
BRANCH  38  41
ATOM     41  C   UNL     1      -3.602  -5.500  -0.365  0.00  0.00    -0.031 C 
ATOM     42  H   UNL     1      -4.492  -6.126  -0.585  0.00  0.00    +0.026 HD
ATOM     43  H   UNL     1      -3.008  -5.989   0.436  0.00  0.00    +0.026 HD
ATOM     44  H   UNL     1      -3.945  -4.507  -0.009  0.00  0.00    +0.026 HD
ENDBRANCH  38  41
ENDBRANCH  37  38
ENDBRANCH  35  37
ENDBRANCH   4  35
BRANCH   5  45
ATOM     45  S   UNL     1      -1.654  -1.085   1.150  0.00  0.00    -0.096 S 
BRANCH  45  46
ATOM     46  C   UNL     1      -2.005   0.379   0.123  0.00  0.00    +0.077 C 
ATOM     47  H   UNL     1      -1.182   1.117   0.236  0.00  0.00    +0.047 HD
ATOM     48  H   UNL     1      -2.075   0.091  -0.947  0.00  0.00    +0.047 HD
BRANCH  46  49
ATOM     49  C   UNL     1      -3.299   0.987   0.557  0.00  0.00    +0.227 C 
ATOM     50  O   UNL     1      -3.289   1.920   1.405  0.00  0.00    -0.275 OA
ATOM     51  N   UNL     1      -4.540   0.446   0.077  0.00  0.00    -0.285 N 
ATOM     52  H   UNL     1      -4.513  -0.491  -0.386  0.00  0.00    +0.155 HD
BRANCH  51  53
ATOM     53  C   UNL     1      -5.825   1.052   0.300  0.00  0.00    +0.034 A 
ATOM     54  C   UNL     1      -6.956   0.234   0.431  0.00  0.00    -0.037 A 
ATOM     55  C   UNL     1      -8.220   0.798   0.627  0.00  0.00    -0.018 A 
ATOM     56  C   UNL     1      -8.378   2.187   0.678  0.00  0.00    +0.120 A 
ATOM     57  C   UNL     1      -7.248   3.012   0.523  0.00  0.00    -0.018 A 
ATOM     58  C   UNL     1      -5.984   2.448   0.329  0.00  0.00    -0.037 A 
ATOM     59  H   UNL     1      -6.856  -0.844   0.393  0.00  0.00    +0.064 HD
ATOM     60  H   UNL     1      -9.081   0.152   0.737  0.00  0.00    +0.065 HD
ATOM     61  H   UNL     1      -7.338   4.090   0.543  0.00  0.00    +0.065 HD
ATOM     62  H   UNL     1      -5.138   3.105   0.176  0.00  0.00    +0.064 HD
BRANCH  56  63
ATOM     63  O   UNL     1      -9.667   2.704   0.878  0.00  0.00    -0.495 OA
BRANCH  63  64
ATOM     64  C   UNL     1      -9.973   4.093   0.950  0.00  0.00    +0.079 C 
ATOM     65  H   UNL     1      -9.429   4.560   1.798  0.00  0.00    +0.066 HD
ATOM     66  H   UNL     1     -11.063   4.216   1.117  0.00  0.00    +0.066 HD
ATOM     67  H   UNL     1      -9.700   4.594  -0.002  0.00  0.00    +0.066 HD
ENDBRANCH  63  64
ENDBRANCH  56  63
ENDBRANCH  51  53
ENDBRANCH  46  49
ENDBRANCH  45  46
ENDBRANCH   5  45
TORSDOF 17
