REMARK  Name = 
REMARK  17 active torsions:
REMARK  status: ('A' for Active; 'I' for Inactive)
REMARK    1  A    between atoms: C_1  and  C_2
REMARK    2  A    between atoms: C_2  and  C_3
REMARK    3  A    between atoms: C_3  and  C_4
REMARK    4  A    between atoms: C_4  and  O_5
REMARK    5  A    between atoms: O_5  and  C_6
REMARK    6  A    between atoms: C_9  and  C_12
REMARK    7  A    between atoms: C_14  and  C_36
REMARK    8  A    between atoms: C_15  and  C_31
REMARK    9  A    between atoms: C_16  and  S_18
REMARK   10  A    between atoms: S_18  and  C_19
REMARK   11  A    between atoms: C_19  and  C_20
REMARK   12  A    between atoms: N_22  and  C_23
REMARK   13  A    between atoms: C_26  and  O_29
REMARK   14  A    between atoms: O_29  and  C_30
REMARK   15  A    between atoms: C_31  and  O_33
REMARK   16  A    between atoms: O_33  and  C_34
REMARK   17  A    between atoms: C_34  and  C_35
REMARK                            x       y       z     vdW  Elec       q    Type
REMARK                         _______ _______ _______ _____ _____    ______ ____
ROOT
ATOM      1  C   UNL     1       1.847  -0.929   0.700  0.00  0.00    +0.161 A 
ATOM      2  N   UNL     1       2.058  -2.252   0.925  0.00  0.00    -0.232 NA
ATOM      3  C   UNL     1       1.101  -3.049   1.470  0.00  0.00    +0.057 A 
ATOM      4  C   UNL     1      -0.154  -2.499   1.809  0.00  0.00    +0.112 A 
ATOM      5  C   UNL     1      -0.353  -1.124   1.563  0.00  0.00    +0.115 A 
ATOM      6  N   UNL     1       0.645  -0.384   1.020  0.00  0.00    -0.220 NA
ENDROOT
BRANCH   1  10
ATOM      7  C   UNL     1       4.951   1.512  -1.029  0.00  0.00    +0.121 A 
ATOM      8  C   UNL     1       3.709   2.066  -0.705  0.00  0.00    -0.019 A 
ATOM      9  C   UNL     1       2.700   1.278  -0.144  0.00  0.00    -0.048 A 
ATOM     10  C   UNL     1       2.917  -0.090   0.104  0.00  0.00    +0.019 A 
ATOM     11  C   UNL     1       4.166  -0.647  -0.226  0.00  0.00    -0.048 A 
ATOM     12  C   UNL     1       5.173   0.143  -0.787  0.00  0.00    -0.019 A 
ATOM     13  H   UNL     1       3.523   3.117  -0.888  0.00  0.00    +0.065 HD
ATOM     14  H   UNL     1       1.752   1.742   0.095  0.00  0.00    +0.063 HD
ATOM     15  H   UNL     1       4.368  -1.696  -0.051  0.00  0.00    +0.063 HD
ATOM     16  H   UNL     1       6.117  -0.324  -1.028  0.00  0.00    +0.065 HD
BRANCH   7  17
ATOM     17  O   UNL     1       5.925   2.354  -1.592  0.00  0.00    -0.492 OA
BRANCH  17  18
ATOM     18  C   UNL     1       7.267   1.980  -1.903  0.00  0.00    +0.090 C 
ATOM     19  H   UNL     1       7.686   2.756  -2.577  0.00  0.00    +0.070 HD
ATOM     20  H   UNL     1       7.284   1.017  -2.457  0.00  0.00    +0.070 HD
BRANCH  18  21
ATOM     21  C   UNL     1       8.118   1.913  -0.628  0.00  0.00    -0.019 C 
ATOM     22  H   UNL     1       7.620   1.252   0.112  0.00  0.00    +0.030 HD
ATOM     23  H   UNL     1       8.186   2.925  -0.173  0.00  0.00    +0.030 HD
BRANCH  21  24
ATOM     24  C   UNL     1       9.527   1.357  -0.887  0.00  0.00    -0.053 C 
ATOM     25  H   UNL     1       9.461   0.381  -1.414  0.00  0.00    +0.026 HD
ATOM     26  H   UNL     1      10.019   1.177   0.093  0.00  0.00    +0.026 HD
BRANCH  24  27
ATOM     27  C   UNL     1      10.401   2.317  -1.693  0.00  0.00    -0.065 C 
ATOM     28  H   UNL     1      10.436   3.314  -1.204  0.00  0.00    +0.023 HD
ATOM     29  H   UNL     1      11.435   1.915  -1.749  0.00  0.00    +0.023 HD
ATOM     30  H   UNL     1      10.016   2.425  -2.728  0.00  0.00    +0.023 HD
ENDBRANCH  24  27
ENDBRANCH  21  24
ENDBRANCH  18  21
ENDBRANCH  17  18
ENDBRANCH   7  17
ENDBRANCH   1  10
BRANCH   3  31
ATOM     31  C   UNL     1       1.426  -4.499   1.688  0.00  0.00    -0.021 C 
ATOM     32  H   UNL     1       0.907  -5.118   0.927  0.00  0.00    +0.029 HD
ATOM     33  H   UNL     1       2.519  -4.669   1.593  0.00  0.00    +0.029 HD
ATOM     34  H   UNL     1       1.116  -4.816   2.706  0.00  0.00    +0.029 HD
ENDBRANCH   3  31
BRANCH   4  35
ATOM     35  C   UNL     1      -1.235  -3.335   2.374  0.00  0.00    +0.344 C 
ATOM     36  O   UNL     1      -1.881  -2.934   3.381  0.00  0.00    -0.245 OA
BRANCH  35  37
ATOM     37  O   UNL     1      -1.544  -4.564   1.779  0.00  0.00    -0.461 OA
BRANCH  37  38
ATOM     38  C   UNL     1      -2.666  -5.358   2.158  0.00  0.00    +0.090 C 
ATOM     39  H   UNL     1      -2.710  -5.463   3.264  0.00  0.00    +0.069 HD
ATOM     40  H   UNL     1      -2.546  -6.370   1.719  0.00  0.00    +0.069 HD
BRANCH  38  41
ATOM     41  C   UNL     1      -3.958  -4.744   1.631  0.00  0.00    -0.031 C 
ATOM     42  H   UNL     1      -4.815  -5.402   1.886  0.00  0.00    +0.026 HD
ATOM     43  H   UNL     1      -3.903  -4.633   0.527  0.00  0.00    +0.026 HD
ATOM     44  H   UNL     1      -4.127  -3.745   2.087  0.00  0.00    +0.026 HD
ENDBRANCH  38  41
ENDBRANCH  37  38
ENDBRANCH  35  37
ENDBRANCH   4  35
BRANCH   5  45
ATOM     45  S   UNL     1      -1.925  -0.312   1.888  0.00  0.00    -0.096 S 
BRANCH  45  46
ATOM     46  C   UNL     1      -2.620  -0.746   0.261  0.00  0.00    +0.077 C 
ATOM     47  H   UNL     1      -2.020  -0.269  -0.542  0.00  0.00    +0.047 HD
ATOM     48  H   UNL     1      -2.591  -1.848   0.118  0.00  0.00    +0.047 HD
BRANCH  46  49
ATOM     49  C   UNL     1      -4.034  -0.269   0.184  0.00  0.00    +0.227 C 
ATOM     50  O   UNL     1      -4.966  -1.045   0.529  0.00  0.00    -0.275 OA
ATOM     51  N   UNL     1      -4.312   1.089  -0.191  0.00  0.00    -0.285 N 
ATOM     52  H   UNL     1      -3.517   1.767  -0.182  0.00  0.00    +0.155 HD
BRANCH  51  53
ATOM     53  C   UNL     1      -5.630   1.597  -0.462  0.00  0.00    +0.034 A 
ATOM     54  C   UNL     1      -6.612   0.801  -1.077  0.00  0.00    -0.037 A 
ATOM     55  C   UNL     1      -7.878   1.327  -1.351  0.00  0.00    -0.018 A 
ATOM     56  C   UNL     1      -8.181   2.655  -1.030  0.00  0.00    +0.120 A 
ATOM     57  C   UNL     1      -7.192   3.460  -0.434  0.00  0.00    -0.018 A 
ATOM     58  C   UNL     1      -5.926   2.934  -0.162  0.00  0.00    -0.037 A 
ATOM     59  H   UNL     1      -6.397  -0.218  -1.370  0.00  0.00    +0.064 HD
ATOM     60  H   UNL     1      -8.625   0.702  -1.823  0.00  0.00    +0.065 HD
ATOM     61  H   UNL     1      -7.391   4.492  -0.180  0.00  0.00    +0.065 HD
ATOM     62  H   UNL     1      -5.176   3.567   0.295  0.00  0.00    +0.064 HD
BRANCH  56  63
ATOM     63  O   UNL     1      -9.467   3.134  -1.323  0.00  0.00    -0.495 OA
BRANCH  63  64
ATOM     64  C   UNL     1      -9.911   4.460  -1.054  0.00  0.00    +0.079 C 
ATOM     65  H   UNL     1      -9.290   5.192  -1.612  0.00  0.00    +0.066 HD
ATOM     66  H   UNL     1     -10.965   4.564  -1.384  0.00  0.00    +0.066 HD
ATOM     67  H   UNL     1      -9.858   4.666   0.036  0.00  0.00    +0.066 HD
ENDBRANCH  63  64
ENDBRANCH  56  63
ENDBRANCH  51  53
ENDBRANCH  46  49
ENDBRANCH  45  46
ENDBRANCH   5  45
TORSDOF 17
