REMARK  Name = 
REMARK  17 active torsions:
REMARK  status: ('A' for Active; 'I' for Inactive)
REMARK    1  A    between atoms: C_1  and  C_2
REMARK    2  A    between atoms: C_2  and  C_3
REMARK    3  A    between atoms: C_3  and  C_4
REMARK    4  A    between atoms: C_4  and  O_5
REMARK    5  A    between atoms: O_5  and  C_6
REMARK    6  A    between atoms: C_9  and  C_12
REMARK    7  A    between atoms: C_14  and  C_36
REMARK    8  A    between atoms: C_15  and  C_31
REMARK    9  A    between atoms: C_16  and  S_18
REMARK   10  A    between atoms: S_18  and  C_19
REMARK   11  A    between atoms: C_19  and  C_20
REMARK   12  A    between atoms: N_22  and  C_23
REMARK   13  A    between atoms: C_26  and  O_29
REMARK   14  A    between atoms: O_29  and  C_30
REMARK   15  A    between atoms: C_31  and  O_33
REMARK   16  A    between atoms: O_33  and  C_34
REMARK   17  A    between atoms: C_34  and  C_35
REMARK                            x       y       z     vdW  Elec       q    Type
REMARK                         _______ _______ _______ _____ _____    ______ ____
ROOT
ATOM      1  C   UNL     1       1.382  -1.160   0.546  0.00  0.00    +0.161 A 
ATOM      2  N   UNL     1       0.541  -1.988  -0.124  0.00  0.00    -0.232 NA
ATOM      3  C   UNL     1      -0.727  -2.229   0.301  0.00  0.00    +0.057 A 
ATOM      4  C   UNL     1      -1.204  -1.594   1.475  0.00  0.00    +0.112 A 
ATOM      5  C   UNL     1      -0.316  -0.716   2.142  0.00  0.00    +0.115 A 
ATOM      6  N   UNL     1       0.942  -0.537   1.668  0.00  0.00    -0.220 NA
ENDROOT
BRANCH   1  10
ATOM      7  C   UNL     1       5.384  -0.482  -0.901  0.00  0.00    +0.121 A 
ATOM      8  C   UNL     1       4.926   0.171   0.258  0.00  0.00    -0.019 A 
ATOM      9  C   UNL     1       3.627  -0.050   0.727  0.00  0.00    -0.048 A 
ATOM     10  C   UNL     1       2.761  -0.928   0.050  0.00  0.00    +0.019 A 
ATOM     11  C   UNL     1       3.226  -1.580  -1.106  0.00  0.00    -0.048 A 
ATOM     12  C   UNL     1       4.525  -1.358  -1.572  0.00  0.00    -0.019 A 
ATOM     13  H   UNL     1       5.560   0.851   0.808  0.00  0.00    +0.065 HD
ATOM     14  H   UNL     1       3.304   0.469   1.620  0.00  0.00    +0.063 HD
ATOM     15  H   UNL     1       2.589  -2.264  -1.653  0.00  0.00    +0.063 HD
ATOM     16  H   UNL     1       4.865  -1.869  -2.464  0.00  0.00    +0.065 HD
BRANCH   7  17
ATOM     17  O   UNL     1       6.678  -0.300  -1.417  0.00  0.00    -0.492 OA
BRANCH  17  18
ATOM     18  C   UNL     1       7.652   0.615  -0.913  0.00  0.00    +0.090 C 
ATOM     19  H   UNL     1       8.635   0.328  -1.340  0.00  0.00    +0.070 HD
ATOM     20  H   UNL     1       7.732   0.528   0.192  0.00  0.00    +0.070 HD
BRANCH  18  21
ATOM     21  C   UNL     1       7.319   2.049  -1.345  0.00  0.00    -0.019 C 
ATOM     22  H   UNL     1       6.274   2.288  -1.054  0.00  0.00    +0.030 HD
ATOM     23  H   UNL     1       7.379   2.127  -2.452  0.00  0.00    +0.030 HD
BRANCH  21  24
ATOM     24  C   UNL     1       8.242   3.090  -0.695  0.00  0.00    -0.053 C 
ATOM     25  H   UNL     1       8.246   2.961   0.409  0.00  0.00    +0.026 HD
ATOM     26  H   UNL     1       7.839   4.103  -0.913  0.00  0.00    +0.026 HD
BRANCH  24  27
ATOM     27  C   UNL     1       9.675   3.022  -1.223  0.00  0.00    -0.065 C 
ATOM     28  H   UNL     1      10.263   3.866  -0.805  0.00  0.00    +0.023 HD
ATOM     29  H   UNL     1      10.163   2.074  -0.914  0.00  0.00    +0.023 HD
ATOM     30  H   UNL     1       9.685   3.099  -2.331  0.00  0.00    +0.023 HD
ENDBRANCH  24  27
ENDBRANCH  21  24
ENDBRANCH  18  21
ENDBRANCH  17  18
ENDBRANCH   7  17
ENDBRANCH   1  10
BRANCH   3  31
ATOM     31  C   UNL     1      -1.561  -3.185  -0.502  0.00  0.00    -0.021 C 
ATOM     32  H   UNL     1      -2.006  -3.959   0.158  0.00  0.00    +0.029 HD
ATOM     33  H   UNL     1      -0.936  -3.703  -1.260  0.00  0.00    +0.029 HD
ATOM     34  H   UNL     1      -2.361  -2.631  -1.036  0.00  0.00    +0.029 HD
ENDBRANCH   3  31
BRANCH   4  35
ATOM     35  C   UNL     1      -2.564  -1.873   2.012  0.00  0.00    +0.344 C 
ATOM     36  O   UNL     1      -2.759  -1.897   3.258  0.00  0.00    -0.245 OA
BRANCH  35  37
ATOM     37  O   UNL     1      -3.627  -2.137   1.142  0.00  0.00    -0.461 OA
BRANCH  37  38
ATOM     38  C   UNL     1      -4.947  -2.411   1.599  0.00  0.00    +0.090 C 
ATOM     39  H   UNL     1      -5.373  -1.502   2.076  0.00  0.00    +0.069 HD
ATOM     40  H   UNL     1      -4.926  -3.238   2.342  0.00  0.00    +0.069 HD
BRANCH  38  41
ATOM     41  C   UNL     1      -5.817  -2.826   0.425  0.00  0.00    -0.031 C 
ATOM     42  H   UNL     1      -5.405  -3.744  -0.046  0.00  0.00    +0.026 HD
ATOM     43  H   UNL     1      -5.851  -2.016  -0.331  0.00  0.00    +0.026 HD
ATOM     44  H   UNL     1      -6.850  -3.033   0.777  0.00  0.00    +0.026 HD
ENDBRANCH  38  41
ENDBRANCH  37  38
ENDBRANCH  35  37
ENDBRANCH   4  35
BRANCH   5  45
ATOM     45  S   UNL     1      -0.811   0.251   3.580  0.00  0.00    -0.096 S 
BRANCH  45  46
ATOM     46  C   UNL     1      -0.905   1.855   2.705  0.00  0.00    +0.077 C 
ATOM     47  H   UNL     1      -1.284   2.622   3.412  0.00  0.00    +0.047 HD
ATOM     48  H   UNL     1       0.119   2.154   2.395  0.00  0.00    +0.047 HD
BRANCH  46  49
ATOM     49  C   UNL     1      -1.813   1.806   1.513  0.00  0.00    +0.227 C 
ATOM     50  O   UNL     1      -1.375   2.185   0.393  0.00  0.00    -0.275 OA
ATOM     51  N   UNL     1      -3.180   1.392   1.659  0.00  0.00    -0.285 N 
ATOM     52  H   UNL     1      -3.580   1.365   2.624  0.00  0.00    +0.155 HD
BRANCH  51  53
ATOM     53  C   UNL     1      -4.054   1.106   0.553  0.00  0.00    +0.034 A 
ATOM     54  C   UNL     1      -5.429   1.344   0.684  0.00  0.00    -0.037 A 
ATOM     55  C   UNL     1      -6.302   1.062  -0.370  0.00  0.00    -0.018 A 
ATOM     56  C   UNL     1      -5.811   0.520  -1.573  0.00  0.00    +0.120 A 
ATOM     57  C   UNL     1      -4.442   0.259  -1.694  0.00  0.00    -0.018 A 
ATOM     58  C   UNL     1      -3.569   0.539  -0.639  0.00  0.00    -0.037 A 
ATOM     59  H   UNL     1      -5.823   1.758   1.603  0.00  0.00    +0.064 HD
ATOM     60  H   UNL     1      -7.356   1.266  -0.239  0.00  0.00    +0.065 HD
ATOM     61  H   UNL     1      -4.054  -0.178  -2.605  0.00  0.00    +0.065 HD
ATOM     62  H   UNL     1      -2.523   0.285  -0.749  0.00  0.00    +0.064 HD
BRANCH  56  63
ATOM     63  O   UNL     1      -6.646   0.217  -2.659  0.00  0.00    -0.495 OA
BRANCH  63  64
ATOM     64  C   UNL     1      -8.057   0.406  -2.664  0.00  0.00    +0.079 C 
ATOM     65  H   UNL     1      -8.526  -0.205  -1.863  0.00  0.00    +0.066 HD
ATOM     66  H   UNL     1      -8.299   1.480  -2.518  0.00  0.00    +0.066 HD
ATOM     67  H   UNL     1      -8.463   0.080  -3.643  0.00  0.00    +0.066 HD
ENDBRANCH  63  64
ENDBRANCH  56  63
ENDBRANCH  51  53
ENDBRANCH  46  49
ENDBRANCH  45  46
ENDBRANCH   5  45
TORSDOF 17
