REMARK  Name = 
REMARK  17 active torsions:
REMARK  status: ('A' for Active; 'I' for Inactive)
REMARK    1  A    between atoms: C_1  and  C_2
REMARK    2  A    between atoms: C_2  and  C_3
REMARK    3  A    between atoms: C_3  and  C_4
REMARK    4  A    between atoms: C_4  and  O_5
REMARK    5  A    between atoms: O_5  and  C_6
REMARK    6  A    between atoms: C_9  and  C_12
REMARK    7  A    between atoms: C_14  and  C_36
REMARK    8  A    between atoms: C_15  and  C_31
REMARK    9  A    between atoms: C_16  and  S_18
REMARK   10  A    between atoms: S_18  and  C_19
REMARK   11  A    between atoms: C_19  and  C_20
REMARK   12  A    between atoms: N_22  and  C_23
REMARK   13  A    between atoms: C_26  and  O_29
REMARK   14  A    between atoms: O_29  and  C_30
REMARK   15  A    between atoms: C_31  and  O_33
REMARK   16  A    between atoms: O_33  and  C_34
REMARK   17  A    between atoms: C_34  and  C_35
REMARK                            x       y       z     vdW  Elec       q    Type
REMARK                         _______ _______ _______ _____ _____    ______ ____
ROOT
ATOM      1  C   UNL     1       1.235  -0.927  -0.790  0.00  0.00    +0.161 A 
ATOM      2  N   UNL     1       0.718  -1.517   0.317  0.00  0.00    -0.232 NA
ATOM      3  C   UNL     1      -0.432  -2.240   0.278  0.00  0.00    +0.057 A 
ATOM      4  C   UNL     1      -1.130  -2.376  -0.945  0.00  0.00    +0.112 A 
ATOM      5  C   UNL     1      -0.573  -1.755  -2.085  0.00  0.00    +0.115 A 
ATOM      6  N   UNL     1       0.587  -1.059  -1.976  0.00  0.00    -0.220 NA
ENDROOT
BRANCH   1  10
ATOM      7  C   UNL     1       4.884   1.351  -0.550  0.00  0.00    +0.121 A 
ATOM      8  C   UNL     1       4.208   1.220  -1.767  0.00  0.00    -0.019 A 
ATOM      9  C   UNL     1       3.025   0.482  -1.849  0.00  0.00    -0.048 A 
ATOM     10  C   UNL     1       2.492  -0.144  -0.706  0.00  0.00    +0.019 A 
ATOM     11  C   UNL     1       3.174  -0.012   0.517  0.00  0.00    -0.048 A 
ATOM     12  C   UNL     1       4.358   0.728   0.596  0.00  0.00    -0.019 A 
ATOM     13  H   UNL     1       4.603   1.696  -2.656  0.00  0.00    +0.065 HD
ATOM     14  H   UNL     1       2.528   0.404  -2.807  0.00  0.00    +0.063 HD
ATOM     15  H   UNL     1       2.794  -0.479   1.417  0.00  0.00    +0.063 HD
ATOM     16  H   UNL     1       4.855   0.808   1.553  0.00  0.00    +0.065 HD
BRANCH   7  17
ATOM     17  O   UNL     1       6.068   2.103  -0.522  0.00  0.00    -0.492 OA
BRANCH  17  18
ATOM     18  C   UNL     1       6.858   2.319   0.645  0.00  0.00    +0.090 C 
ATOM     19  H   UNL     1       6.247   2.838   1.415  0.00  0.00    +0.070 HD
ATOM     20  H   UNL     1       7.207   1.341   1.043  0.00  0.00    +0.070 HD
BRANCH  18  21
ATOM     21  C   UNL     1       8.065   3.183   0.285  0.00  0.00    -0.019 C 
ATOM     22  H   UNL     1       8.661   2.664  -0.498  0.00  0.00    +0.030 HD
ATOM     23  H   UNL     1       7.707   4.152  -0.127  0.00  0.00    +0.030 HD
BRANCH  21  24
ATOM     24  C   UNL     1       8.945   3.441   1.514  0.00  0.00    -0.053 C 
ATOM     25  H   UNL     1       8.351   3.961   2.297  0.00  0.00    +0.026 HD
ATOM     26  H   UNL     1       9.305   2.474   1.927  0.00  0.00    +0.026 HD
BRANCH  24  27
ATOM     27  C   UNL     1      10.151   4.304   1.155  0.00  0.00    -0.065 C 
ATOM     28  H   UNL     1       9.818   5.288   0.762  0.00  0.00    +0.023 HD
ATOM     29  H   UNL     1      10.769   4.475   2.062  0.00  0.00    +0.023 HD
ATOM     30  H   UNL     1      10.776   3.795   0.390  0.00  0.00    +0.023 HD
ENDBRANCH  24  27
ENDBRANCH  21  24
ENDBRANCH  18  21
ENDBRANCH  17  18
ENDBRANCH   7  17
ENDBRANCH   1  10
BRANCH   3  31
ATOM     31  C   UNL     1      -0.897  -2.894   1.548  0.00  0.00    -0.021 C 
ATOM     32  H   UNL     1      -0.097  -2.857   2.318  0.00  0.00    +0.029 HD
ATOM     33  H   UNL     1      -1.147  -3.960   1.365  0.00  0.00    +0.029 HD
ATOM     34  H   UNL     1      -1.786  -2.364   1.947  0.00  0.00    +0.029 HD
ENDBRANCH   3  31
BRANCH   4  35
ATOM     35  C   UNL     1      -2.390  -3.152  -1.026  0.00  0.00    +0.344 C 
ATOM     36  O   UNL     1      -2.580  -3.946  -1.987  0.00  0.00    -0.245 OA
BRANCH  35  37
ATOM     37  O   UNL     1      -3.356  -3.016  -0.021  0.00  0.00    -0.461 OA
BRANCH  37  38
ATOM     38  C   UNL     1      -4.569  -3.764   0.014  0.00  0.00    +0.090 C 
ATOM     39  H   UNL     1      -4.366  -4.838  -0.184  0.00  0.00    +0.069 HD
ATOM     40  H   UNL     1      -5.006  -3.677   1.032  0.00  0.00    +0.069 HD
BRANCH  38  41
ATOM     41  C   UNL     1      -5.573  -3.220  -0.995  0.00  0.00    -0.031 C 
ATOM     42  H   UNL     1      -5.175  -3.309  -2.027  0.00  0.00    +0.026 HD
ATOM     43  H   UNL     1      -6.519  -3.796  -0.927  0.00  0.00    +0.026 HD
ATOM     44  H   UNL     1      -5.789  -2.154  -0.777  0.00  0.00    +0.026 HD
ENDBRANCH  38  41
ENDBRANCH  37  38
ENDBRANCH  35  37
ENDBRANCH   4  35
BRANCH   5  45
ATOM     45  S   UNL     1      -1.371  -1.805  -3.699  0.00  0.00    -0.096 S 
BRANCH  45  46
ATOM     46  C   UNL     1      -2.116  -0.142  -3.570  0.00  0.00    +0.077 C 
ATOM     47  H   UNL     1      -2.550   0.126  -4.556  0.00  0.00    +0.047 HD
ATOM     48  H   UNL     1      -1.333   0.609  -3.332  0.00  0.00    +0.047 HD
BRANCH  46  49
ATOM     49  C   UNL     1      -3.200  -0.125  -2.537  0.00  0.00    +0.227 C 
ATOM     50  O   UNL     1      -4.311  -0.653  -2.808  0.00  0.00    -0.275 OA
ATOM     51  N   UNL     1      -2.939   0.415  -1.231  0.00  0.00    -0.285 N 
ATOM     52  H   UNL     1      -1.956   0.696  -1.010  0.00  0.00    +0.155 HD
BRANCH  51  53
ATOM     53  C   UNL     1      -3.879   0.378  -0.145  0.00  0.00    +0.034 A 
ATOM     54  C   UNL     1      -5.247   0.622  -0.348  0.00  0.00    -0.037 A 
ATOM     55  C   UNL     1      -6.142   0.563   0.725  0.00  0.00    -0.018 A 
ATOM     56  C   UNL     1      -5.678   0.276   2.022  0.00  0.00    +0.120 A 
ATOM     57  C   UNL     1      -4.309   0.069   2.226  0.00  0.00    -0.018 A 
ATOM     58  C   UNL     1      -3.415   0.132   1.154  0.00  0.00    -0.037 A 
ATOM     59  H   UNL     1      -5.625   0.873  -1.330  0.00  0.00    +0.064 HD
ATOM     60  H   UNL     1      -7.191   0.745   0.535  0.00  0.00    +0.065 HD
ATOM     61  H   UNL     1      -3.937  -0.143   3.220  0.00  0.00    +0.065 HD
ATOM     62  H   UNL     1      -2.359  -0.028   1.333  0.00  0.00    +0.064 HD
BRANCH  56  63
ATOM     63  O   UNL     1      -6.537   0.194   3.128  0.00  0.00    -0.495 OA
BRANCH  63  64
ATOM     64  C   UNL     1      -7.947   0.373   3.065  0.00  0.00    +0.079 C 
ATOM     65  H   UNL     1      -8.399  -0.387   2.392  0.00  0.00    +0.066 HD
ATOM     66  H   UNL     1      -8.375   0.247   4.081  0.00  0.00    +0.066 HD
ATOM     67  H   UNL     1      -8.187   1.395   2.703  0.00  0.00    +0.066 HD
ENDBRANCH  63  64
ENDBRANCH  56  63
ENDBRANCH  51  53
ENDBRANCH  46  49
ENDBRANCH  45  46
ENDBRANCH   5  45
TORSDOF 17
