REMARK  Name = 
REMARK  17 active torsions:
REMARK  status: ('A' for Active; 'I' for Inactive)
REMARK    1  A    between atoms: C_1  and  C_2
REMARK    2  A    between atoms: C_2  and  C_3
REMARK    3  A    between atoms: C_3  and  C_4
REMARK    4  A    between atoms: C_4  and  O_5
REMARK    5  A    between atoms: O_5  and  C_6
REMARK    6  A    between atoms: C_9  and  C_12
REMARK    7  A    between atoms: C_14  and  C_36
REMARK    8  A    between atoms: C_15  and  C_31
REMARK    9  A    between atoms: C_16  and  S_18
REMARK   10  A    between atoms: S_18  and  C_19
REMARK   11  A    between atoms: C_19  and  C_20
REMARK   12  A    between atoms: N_22  and  C_23
REMARK   13  A    between atoms: C_26  and  O_29
REMARK   14  A    between atoms: O_29  and  C_30
REMARK   15  A    between atoms: C_31  and  O_33
REMARK   16  A    between atoms: O_33  and  C_34
REMARK   17  A    between atoms: C_34  and  C_35
REMARK                            x       y       z     vdW  Elec       q    Type
REMARK                         _______ _______ _______ _____ _____    ______ ____
ROOT
ATOM      1  C   UNL     1      -0.624  -1.651  -0.762  0.00  0.00    +0.161 A 
ATOM      2  N   UNL     1      -1.065  -2.818  -0.225  0.00  0.00    -0.232 NA
ATOM      3  C   UNL     1      -0.555  -4.020  -0.604  0.00  0.00    +0.057 A 
ATOM      4  C   UNL     1       0.480  -4.068  -1.570  0.00  0.00    +0.112 A 
ATOM      5  C   UNL     1       0.932  -2.841  -2.100  0.00  0.00    +0.115 A 
ATOM      6  N   UNL     1       0.363  -1.680  -1.690  0.00  0.00    -0.220 NA
ENDROOT
BRANCH   1  10
ATOM      7  C   UNL     1      -2.094   2.145   0.630  0.00  0.00    +0.121 A 
ATOM      8  C   UNL     1      -2.386   0.967   1.342  0.00  0.00    -0.019 A 
ATOM      9  C   UNL     1      -1.934  -0.271   0.874  0.00  0.00    -0.048 A 
ATOM     10  C   UNL     1      -1.176  -0.354  -0.307  0.00  0.00    +0.019 A 
ATOM     11  C   UNL     1      -0.904   0.826  -1.023  0.00  0.00    -0.048 A 
ATOM     12  C   UNL     1      -1.365   2.060  -0.559  0.00  0.00    -0.019 A 
ATOM     13  H   UNL     1      -2.951   0.997   2.263  0.00  0.00    +0.065 HD
ATOM     14  H   UNL     1      -2.156  -1.159   1.453  0.00  0.00    +0.063 HD
ATOM     15  H   UNL     1      -0.322   0.799  -1.936  0.00  0.00    +0.063 HD
ATOM     16  H   UNL     1      -1.133   2.960  -1.115  0.00  0.00    +0.065 HD
BRANCH   7  17
ATOM     17  O   UNL     1      -2.498   3.412   1.073  0.00  0.00    -0.492 OA
BRANCH  17  18
ATOM     18  C   UNL     1      -3.174   3.659   2.304  0.00  0.00    +0.090 C 
ATOM     19  H   UNL     1      -2.551   3.289   3.147  0.00  0.00    +0.070 HD
ATOM     20  H   UNL     1      -4.151   3.129   2.315  0.00  0.00    +0.070 HD
BRANCH  18  21
ATOM     21  C   UNL     1      -3.398   5.160   2.483  0.00  0.00    -0.019 C 
ATOM     22  H   UNL     1      -3.839   5.336   3.488  0.00  0.00    +0.030 HD
ATOM     23  H   UNL     1      -2.417   5.683   2.438  0.00  0.00    +0.030 HD
BRANCH  21  24
ATOM     24  C   UNL     1      -4.336   5.725   1.409  0.00  0.00    -0.053 C 
ATOM     25  H   UNL     1      -5.316   5.201   1.453  0.00  0.00    +0.026 HD
ATOM     26  H   UNL     1      -3.896   5.566   0.401  0.00  0.00    +0.026 HD
BRANCH  24  27
ATOM     27  C   UNL     1      -4.567   7.220   1.612  0.00  0.00    -0.065 C 
ATOM     28  H   UNL     1      -3.605   7.771   1.548  0.00  0.00    +0.023 HD
ATOM     29  H   UNL     1      -5.248   7.601   0.821  0.00  0.00    +0.023 HD
ATOM     30  H   UNL     1      -5.033   7.407   2.603  0.00  0.00    +0.023 HD
ENDBRANCH  24  27
ENDBRANCH  21  24
ENDBRANCH  18  21
ENDBRANCH  17  18
ENDBRANCH   7  17
ENDBRANCH   1  10
BRANCH   3  31
ATOM     31  C   UNL     1      -1.124  -5.258   0.027  0.00  0.00    -0.021 C 
ATOM     32  H   UNL     1      -1.364  -6.013  -0.751  0.00  0.00    +0.029 HD
ATOM     33  H   UNL     1      -0.395  -5.680   0.750  0.00  0.00    +0.029 HD
ATOM     34  H   UNL     1      -2.061  -5.019   0.573  0.00  0.00    +0.029 HD
ENDBRANCH   3  31
BRANCH   4  35
ATOM     35  C   UNL     1       1.083  -5.351  -2.002  0.00  0.00    +0.344 C 
ATOM     36  O   UNL     1       1.347  -6.244  -1.152  0.00  0.00    -0.245 OA
BRANCH  35  37
ATOM     37  O   UNL     1       1.362  -5.564  -3.357  0.00  0.00    -0.461 OA
BRANCH  37  38
ATOM     38  C   UNL     1       2.066  -6.704  -3.844  0.00  0.00    +0.090 C 
ATOM     39  H   UNL     1       1.657  -7.635  -3.394  0.00  0.00    +0.069 HD
ATOM     40  H   UNL     1       1.927  -6.762  -4.944  0.00  0.00    +0.069 HD
BRANCH  38  41
ATOM     41  C   UNL     1       3.556  -6.580  -3.545  0.00  0.00    -0.031 C 
ATOM     42  H   UNL     1       3.955  -5.645  -3.991  0.00  0.00    +0.026 HD
ATOM     43  H   UNL     1       3.731  -6.563  -2.449  0.00  0.00    +0.026 HD
ATOM     44  H   UNL     1       4.098  -7.447  -3.979  0.00  0.00    +0.026 HD
ENDBRANCH  38  41
ENDBRANCH  37  38
ENDBRANCH  35  37
ENDBRANCH   4  35
BRANCH   5  45
ATOM     45  S   UNL     1       2.292  -2.724  -3.276  0.00  0.00    -0.096 S 
BRANCH  45  46
ATOM     46  C   UNL     1       3.638  -2.868  -2.040  0.00  0.00    +0.077 C 
ATOM     47  H   UNL     1       3.620  -3.893  -1.613  0.00  0.00    +0.047 HD
ATOM     48  H   UNL     1       4.608  -2.734  -2.562  0.00  0.00    +0.047 HD
BRANCH  46  49
ATOM     49  C   UNL     1       3.544  -1.855  -0.933  0.00  0.00    +0.227 C 
ATOM     50  O   UNL     1       3.881  -2.196   0.232  0.00  0.00    -0.275 OA
ATOM     51  N   UNL     1       3.174  -0.495  -1.211  0.00  0.00    -0.285 N 
ATOM     52  H   UNL     1       3.311  -0.148  -2.188  0.00  0.00    +0.155 HD
BRANCH  51  53
ATOM     53  C   UNL     1       2.608   0.410  -0.243  0.00  0.00    +0.034 A 
ATOM     54  C   UNL     1       2.619   1.788  -0.507  0.00  0.00    -0.037 A 
ATOM     55  C   UNL     1       2.020   2.689   0.379  0.00  0.00    -0.018 A 
ATOM     56  C   UNL     1       1.387   2.222   1.546  0.00  0.00    +0.120 A 
ATOM     57  C   UNL     1       1.376   0.849   1.811  0.00  0.00    -0.018 A 
ATOM     58  C   UNL     1       1.970  -0.052   0.924  0.00  0.00    -0.037 A 
ATOM     59  H   UNL     1       3.088   2.166  -1.407  0.00  0.00    +0.064 HD
ATOM     60  H   UNL     1       2.043   3.744   0.141  0.00  0.00    +0.065 HD
ATOM     61  H   UNL     1       0.876   0.476   2.696  0.00  0.00    +0.065 HD
ATOM     62  H   UNL     1       1.882  -1.109   1.134  0.00  0.00    +0.064 HD
BRANCH  56  63
ATOM     63  O   UNL     1       0.748   3.080   2.453  0.00  0.00    -0.495 OA
BRANCH  63  64
ATOM     64  C   UNL     1       0.626   4.488   2.277  0.00  0.00    +0.079 C 
ATOM     65  H   UNL     1       0.058   4.911   3.130  0.00  0.00    +0.066 HD
ATOM     66  H   UNL     1       1.632   4.958   2.250  0.00  0.00    +0.066 HD
ATOM     67  H   UNL     1       0.075   4.709   1.339  0.00  0.00    +0.066 HD
ENDBRANCH  63  64
ENDBRANCH  56  63
ENDBRANCH  51  53
ENDBRANCH  46  49
ENDBRANCH  45  46
ENDBRANCH   5  45
TORSDOF 17
