REMARK  Name = 
REMARK  17 active torsions:
REMARK  status: ('A' for Active; 'I' for Inactive)
REMARK    1  A    between atoms: C_1  and  C_2
REMARK    2  A    between atoms: C_2  and  C_3
REMARK    3  A    between atoms: C_3  and  C_4
REMARK    4  A    between atoms: C_4  and  O_5
REMARK    5  A    between atoms: O_5  and  C_6
REMARK    6  A    between atoms: C_9  and  C_12
REMARK    7  A    between atoms: C_14  and  C_36
REMARK    8  A    between atoms: C_15  and  C_31
REMARK    9  A    between atoms: C_16  and  S_18
REMARK   10  A    between atoms: S_18  and  C_19
REMARK   11  A    between atoms: C_19  and  C_20
REMARK   12  A    between atoms: N_22  and  C_23
REMARK   13  A    between atoms: C_26  and  O_29
REMARK   14  A    between atoms: O_29  and  C_30
REMARK   15  A    between atoms: C_31  and  O_33
REMARK   16  A    between atoms: O_33  and  C_34
REMARK   17  A    between atoms: C_34  and  C_35
REMARK                            x       y       z     vdW  Elec       q    Type
REMARK                         _______ _______ _______ _____ _____    ______ ____
ROOT
ATOM      1  C   UNL     1      -2.021  -0.617   0.121  0.00  0.00    +0.161 A 
ATOM      2  N   UNL     1      -2.170  -1.812  -0.505  0.00  0.00    -0.232 NA
ATOM      3  C   UNL     1      -1.128  -2.665  -0.687  0.00  0.00    +0.057 A 
ATOM      4  C   UNL     1       0.155  -2.312  -0.207  0.00  0.00    +0.112 A 
ATOM      5  C   UNL     1       0.288  -1.061   0.434  0.00  0.00    +0.115 A 
ATOM      6  N   UNL     1      -0.796  -0.259   0.584  0.00  0.00    -0.220 NA
ENDROOT
BRANCH   1  10
ATOM      7  C   UNL     1      -5.394   2.017   0.635  0.00  0.00    +0.121 A 
ATOM      8  C   UNL     1      -5.553   0.772  -0.004  0.00  0.00    -0.019 A 
ATOM      9  C   UNL     1      -4.458  -0.081  -0.170  0.00  0.00    -0.048 A 
ATOM     10  C   UNL     1      -3.184   0.288   0.299  0.00  0.00    +0.019 A 
ATOM     11  C   UNL     1      -3.033   1.531   0.940  0.00  0.00    -0.048 A 
ATOM     12  C   UNL     1      -4.129   2.382   1.105  0.00  0.00    -0.019 A 
ATOM     13  H   UNL     1      -6.514   0.450  -0.376  0.00  0.00    +0.065 HD
ATOM     14  H   UNL     1      -4.612  -1.030  -0.667  0.00  0.00    +0.063 HD
ATOM     15  H   UNL     1      -2.068   1.850   1.315  0.00  0.00    +0.063 HD
ATOM     16  H   UNL     1      -3.994   3.336   1.600  0.00  0.00    +0.065 HD
BRANCH   7  17
ATOM     17  O   UNL     1      -6.458   2.913   0.831  0.00  0.00    -0.492 OA
BRANCH  17  18
ATOM     18  C   UNL     1      -7.790   2.741   0.345  0.00  0.00    +0.090 C 
ATOM     19  H   UNL     1      -8.442   3.455   0.890  0.00  0.00    +0.070 HD
ATOM     20  H   UNL     1      -8.157   1.718   0.571  0.00  0.00    +0.070 HD
BRANCH  18  21
ATOM     21  C   UNL     1      -7.859   3.048  -1.157  0.00  0.00    -0.019 C 
ATOM     22  H   UNL     1      -7.612   4.118  -1.329  0.00  0.00    +0.030 HD
ATOM     23  H   UNL     1      -7.096   2.444  -1.691  0.00  0.00    +0.030 HD
BRANCH  21  24
ATOM     24  C   UNL     1      -9.232   2.723  -1.763  0.00  0.00    -0.053 C 
ATOM     25  H   UNL     1      -9.517   1.675  -1.522  0.00  0.00    +0.026 HD
ATOM     26  H   UNL     1      -9.157   2.804  -2.869  0.00  0.00    +0.026 HD
BRANCH  24  27
ATOM     27  C   UNL     1     -10.329   3.674  -1.286  0.00  0.00    -0.065 C 
ATOM     28  H   UNL     1     -10.529   3.533  -0.204  0.00  0.00    +0.023 HD
ATOM     29  H   UNL     1     -11.267   3.463  -1.841  0.00  0.00    +0.023 HD
ATOM     30  H   UNL     1     -10.037   4.729  -1.474  0.00  0.00    +0.023 HD
ENDBRANCH  24  27
ENDBRANCH  21  24
ENDBRANCH  18  21
ENDBRANCH  17  18
ENDBRANCH   7  17
ENDBRANCH   1  10
BRANCH   3  31
ATOM     31  C   UNL     1      -1.390  -3.959  -1.402  0.00  0.00    -0.021 C 
ATOM     32  H   UNL     1      -2.375  -3.924  -1.915  0.00  0.00    +0.029 HD
ATOM     33  H   UNL     1      -0.611  -4.142  -2.172  0.00  0.00    +0.029 HD
ATOM     34  H   UNL     1      -1.404  -4.795  -0.673  0.00  0.00    +0.029 HD
ENDBRANCH   3  31
BRANCH   4  35
ATOM     35  C   UNL     1       1.309  -3.229  -0.353  0.00  0.00    +0.344 C 
ATOM     36  O   UNL     1       2.426  -2.784  -0.733  0.00  0.00    -0.245 OA
BRANCH  35  37
ATOM     37  O   UNL     1       1.152  -4.593  -0.079  0.00  0.00    -0.461 OA
BRANCH  37  38
ATOM     38  C   UNL     1       2.220  -5.536  -0.144  0.00  0.00    +0.090 C 
ATOM     39  H   UNL     1       1.787  -6.559  -0.145  0.00  0.00    +0.069 HD
ATOM     40  H   UNL     1       2.795  -5.404  -1.086  0.00  0.00    +0.069 HD
BRANCH  38  41
ATOM     41  C   UNL     1       3.139  -5.393   1.063  0.00  0.00    -0.031 C 
ATOM     42  H   UNL     1       3.929  -6.171   1.025  0.00  0.00    +0.026 HD
ATOM     43  H   UNL     1       2.555  -5.519   2.000  0.00  0.00    +0.026 HD
ATOM     44  H   UNL     1       3.622  -4.394   1.067  0.00  0.00    +0.026 HD
ENDBRANCH  38  41
ENDBRANCH  37  38
ENDBRANCH  35  37
ENDBRANCH   4  35
BRANCH   5  45
ATOM     45  S   UNL     1       1.847  -0.502   1.135  0.00  0.00    -0.096 S 
BRANCH  45  46
ATOM     46  C   UNL     1       2.285   0.497  -0.323  0.00  0.00    +0.077 C 
ATOM     47  H   UNL     1       1.573   1.345  -0.416  0.00  0.00    +0.047 HD
ATOM     48  H   UNL     1       2.222  -0.117  -1.246  0.00  0.00    +0.047 HD
BRANCH  46  49
ATOM     49  C   UNL     1       3.680   1.011  -0.166  0.00  0.00    +0.227 C 
ATOM     50  O   UNL     1       3.864   2.218   0.148  0.00  0.00    -0.275 OA
ATOM     51  N   UNL     1       4.794   0.131  -0.382  0.00  0.00    -0.285 N 
ATOM     52  H   UNL     1       4.615  -0.763  -0.894  0.00  0.00    +0.155 HD
BRANCH  51  53
ATOM     53  C   UNL     1       6.152   0.445  -0.028  0.00  0.00    +0.034 A 
ATOM     54  C   UNL     1       7.200  -0.065  -0.807  0.00  0.00    -0.037 A 
ATOM     55  C   UNL     1       8.530   0.206  -0.471  0.00  0.00    -0.018 A 
ATOM     56  C   UNL     1       8.835   0.976   0.657  0.00  0.00    +0.120 A 
ATOM     57  C   UNL     1       7.786   1.470   1.455  0.00  0.00    -0.018 A 
ATOM     58  C   UNL     1       6.456   1.200   1.118  0.00  0.00    -0.037 A 
ATOM     59  H   UNL     1       6.986  -0.666  -1.682  0.00  0.00    +0.064 HD
ATOM     60  H   UNL     1       9.327  -0.187  -1.089  0.00  0.00    +0.065 HD
ATOM     61  H   UNL     1       7.987   2.055   2.341  0.00  0.00    +0.065 HD
ATOM     62  H   UNL     1       5.671   1.560   1.769  0.00  0.00    +0.064 HD
BRANCH  56  63
ATOM     63  O   UNL     1      10.185   1.221   0.951  0.00  0.00    -0.495 OA
BRANCH  63  64
ATOM     64  C   UNL     1      10.639   1.985   2.064  0.00  0.00    +0.079 C 
ATOM     65  H   UNL     1      11.748   2.020   2.051  0.00  0.00    +0.066 HD
ATOM     66  H   UNL     1      10.308   1.512   3.012  0.00  0.00    +0.066 HD
ATOM     67  H   UNL     1      10.250   3.023   1.998  0.00  0.00    +0.066 HD
ENDBRANCH  63  64
ENDBRANCH  56  63
ENDBRANCH  51  53
ENDBRANCH  46  49
ENDBRANCH  45  46
ENDBRANCH   5  45
TORSDOF 17
