REMARK  Name = 
REMARK  17 active torsions:
REMARK  status: ('A' for Active; 'I' for Inactive)
REMARK    1  A    between atoms: C_1  and  C_2
REMARK    2  A    between atoms: C_2  and  C_3
REMARK    3  A    between atoms: C_3  and  C_4
REMARK    4  A    between atoms: C_4  and  O_5
REMARK    5  A    between atoms: O_5  and  C_6
REMARK    6  A    between atoms: C_9  and  C_12
REMARK    7  A    between atoms: C_14  and  C_36
REMARK    8  A    between atoms: C_15  and  C_31
REMARK    9  A    between atoms: C_16  and  S_18
REMARK   10  A    between atoms: S_18  and  C_19
REMARK   11  A    between atoms: C_19  and  C_20
REMARK   12  A    between atoms: N_22  and  C_23
REMARK   13  A    between atoms: C_26  and  O_29
REMARK   14  A    between atoms: O_29  and  C_30
REMARK   15  A    between atoms: C_31  and  O_33
REMARK   16  A    between atoms: O_33  and  C_34
REMARK   17  A    between atoms: C_34  and  C_35
REMARK                            x       y       z     vdW  Elec       q    Type
REMARK                         _______ _______ _______ _____ _____    ______ ____
ROOT
ATOM      1  C   UNL     1      -1.944  -0.742  -0.268  0.00  0.00    +0.161 A 
ATOM      2  N   UNL     1      -1.530  -1.813  -0.992  0.00  0.00    -0.232 NA
ATOM      3  C   UNL     1      -0.251  -1.930  -1.438  0.00  0.00    +0.057 A 
ATOM      4  C   UNL     1       0.689  -0.916  -1.138  0.00  0.00    +0.112 A 
ATOM      5  C   UNL     1       0.233   0.192  -0.391  0.00  0.00    +0.115 A 
ATOM      6  N   UNL     1      -1.059   0.246   0.021  0.00  0.00    -0.220 NA
ENDROOT
BRANCH   1  10
ATOM      7  C   UNL     1      -6.024  -0.484   1.095  0.00  0.00    +0.121 A 
ATOM      8  C   UNL     1      -5.595  -1.582   0.344  0.00  0.00    -0.019 A 
ATOM      9  C   UNL     1      -4.273  -1.669  -0.100  0.00  0.00    -0.048 A 
ATOM     10  C   UNL     1      -3.349  -0.652   0.202  0.00  0.00    +0.019 A 
ATOM     11  C   UNL     1      -3.782   0.453   0.959  0.00  0.00    -0.048 A 
ATOM     12  C   UNL     1      -5.106   0.537   1.401  0.00  0.00    -0.019 A 
ATOM     13  H   UNL     1      -6.292  -2.375   0.102  0.00  0.00    +0.065 HD
ATOM     14  H   UNL     1      -3.977  -2.535  -0.679  0.00  0.00    +0.063 HD
ATOM     15  H   UNL     1      -3.100   1.254   1.211  0.00  0.00    +0.063 HD
ATOM     16  H   UNL     1      -5.403   1.400   1.981  0.00  0.00    +0.065 HD
BRANCH   7  17
ATOM     17  O   UNL     1      -7.361  -0.445   1.515  0.00  0.00    -0.492 OA
BRANCH  17  18
ATOM     18  C   UNL     1      -7.939   0.616   2.273  0.00  0.00    +0.090 C 
ATOM     19  H   UNL     1      -7.409   0.704   3.246  0.00  0.00    +0.070 HD
ATOM     20  H   UNL     1      -7.833   1.577   1.727  0.00  0.00    +0.070 HD
BRANCH  18  21
ATOM     21  C   UNL     1      -9.417   0.325   2.547  0.00  0.00    -0.019 C 
ATOM     22  H   UNL     1      -9.845   1.147   3.160  0.00  0.00    +0.030 HD
ATOM     23  H   UNL     1      -9.486  -0.608   3.148  0.00  0.00    +0.030 HD
BRANCH  21  24
ATOM     24  C   UNL     1     -10.252   0.143   1.268  0.00  0.00    -0.053 C 
ATOM     25  H   UNL     1     -11.266  -0.207   1.561  0.00  0.00    +0.026 HD
ATOM     26  H   UNL     1      -9.804  -0.641   0.621  0.00  0.00    +0.026 HD
BRANCH  24  27
ATOM     27  C   UNL     1     -10.405   1.438   0.472  0.00  0.00    -0.065 C 
ATOM     28  H   UNL     1      -9.433   1.748   0.034  0.00  0.00    +0.023 HD
ATOM     29  H   UNL     1     -11.121   1.276  -0.361  0.00  0.00    +0.023 HD
ATOM     30  H   UNL     1     -10.796   2.251   1.120  0.00  0.00    +0.023 HD
ENDBRANCH  24  27
ENDBRANCH  21  24
ENDBRANCH  18  21
ENDBRANCH  17  18
ENDBRANCH   7  17
ENDBRANCH   1  10
BRANCH   3  31
ATOM     31  C   UNL     1       0.103  -3.144  -2.248  0.00  0.00    -0.021 C 
ATOM     32  H   UNL     1       0.659  -2.849  -3.163  0.00  0.00    +0.029 HD
ATOM     33  H   UNL     1      -0.816  -3.680  -2.565  0.00  0.00    +0.029 HD
ATOM     34  H   UNL     1       0.719  -3.837  -1.638  0.00  0.00    +0.029 HD
ENDBRANCH   3  31
BRANCH   4  35
ATOM     35  C   UNL     1       2.104  -1.016  -1.575  0.00  0.00    +0.344 C 
ATOM     36  O   UNL     1       2.709  -2.121  -1.505  0.00  0.00    -0.245 OA
BRANCH  35  37
ATOM     37  O   UNL     1       2.771   0.118  -2.054  0.00  0.00    -0.461 OA
BRANCH  37  38
ATOM     38  C   UNL     1       4.117   0.099  -2.524  0.00  0.00    +0.090 C 
ATOM     39  H   UNL     1       4.763  -0.483  -1.833  0.00  0.00    +0.069 HD
ATOM     40  H   UNL     1       4.496   1.143  -2.553  0.00  0.00    +0.069 HD
BRANCH  38  41
ATOM     41  C   UNL     1       4.185  -0.489  -3.928  0.00  0.00    -0.031 C 
ATOM     42  H   UNL     1       5.232  -0.452  -4.297  0.00  0.00    +0.026 HD
ATOM     43  H   UNL     1       3.846  -1.546  -3.921  0.00  0.00    +0.026 HD
ATOM     44  H   UNL     1       3.539   0.096  -4.616  0.00  0.00    +0.026 HD
ENDBRANCH  38  41
ENDBRANCH  37  38
ENDBRANCH  35  37
ENDBRANCH   4  35
BRANCH   5  45
ATOM     45  S   UNL     1       1.319   1.542   0.091  0.00  0.00    -0.096 S 
BRANCH  45  46
ATOM     46  C   UNL     1       1.905   0.743   1.623  0.00  0.00    +0.077 C 
ATOM     47  H   UNL     1       1.745  -0.356   1.605  0.00  0.00    +0.047 HD
ATOM     48  H   UNL     1       1.344   1.160   2.485  0.00  0.00    +0.047 HD
BRANCH  46  49
ATOM     49  C   UNL     1       3.365   1.020   1.774  0.00  0.00    +0.227 C 
ATOM     50  O   UNL     1       3.744   2.002   2.466  0.00  0.00    -0.275 OA
ATOM     51  N   UNL     1       4.322   0.180   1.110  0.00  0.00    -0.285 N 
ATOM     52  H   UNL     1       4.028  -0.792   0.861  0.00  0.00    +0.155 HD
BRANCH  51  53
ATOM     53  C   UNL     1       5.662   0.585   0.784  0.00  0.00    +0.034 A 
ATOM     54  C   UNL     1       5.974   1.925   0.494  0.00  0.00    -0.037 A 
ATOM     55  C   UNL     1       7.276   2.284   0.135  0.00  0.00    -0.018 A 
ATOM     56  C   UNL     1       8.283   1.317   0.045  0.00  0.00    +0.120 A 
ATOM     57  C   UNL     1       7.968  -0.028   0.316  0.00  0.00    -0.018 A 
ATOM     58  C   UNL     1       6.666  -0.388   0.674  0.00  0.00    -0.037 A 
ATOM     59  H   UNL     1       5.210   2.690   0.515  0.00  0.00    +0.064 HD
ATOM     60  H   UNL     1       7.503   3.320  -0.085  0.00  0.00    +0.065 HD
ATOM     61  H   UNL     1       8.720  -0.803   0.248  0.00  0.00    +0.065 HD
ATOM     62  H   UNL     1       6.438  -1.428   0.870  0.00  0.00    +0.064 HD
BRANCH  56  63
ATOM     63  O   UNL     1       9.574   1.729  -0.318  0.00  0.00    -0.495 OA
BRANCH  63  64
ATOM     64  C   UNL     1      10.689   0.854  -0.452  0.00  0.00    +0.079 C 
ATOM     65  H   UNL     1      11.580   1.445  -0.747  0.00  0.00    +0.066 HD
ATOM     66  H   UNL     1      10.489   0.097  -1.238  0.00  0.00    +0.066 HD
ATOM     67  H   UNL     1      10.899   0.353   0.517  0.00  0.00    +0.066 HD
ENDBRANCH  63  64
ENDBRANCH  56  63
ENDBRANCH  51  53
ENDBRANCH  46  49
ENDBRANCH  45  46
ENDBRANCH   5  45
TORSDOF 17
