REMARK  Name = 
REMARK  17 active torsions:
REMARK  status: ('A' for Active; 'I' for Inactive)
REMARK    1  A    between atoms: C_1  and  C_2
REMARK    2  A    between atoms: C_2  and  C_3
REMARK    3  A    between atoms: C_3  and  C_4
REMARK    4  A    between atoms: C_4  and  O_5
REMARK    5  A    between atoms: O_5  and  C_6
REMARK    6  A    between atoms: C_9  and  C_12
REMARK    7  A    between atoms: C_14  and  C_36
REMARK    8  A    between atoms: C_15  and  C_31
REMARK    9  A    between atoms: C_16  and  S_18
REMARK   10  A    between atoms: S_18  and  C_19
REMARK   11  A    between atoms: C_19  and  C_20
REMARK   12  A    between atoms: N_22  and  C_23
REMARK   13  A    between atoms: C_26  and  O_29
REMARK   14  A    between atoms: O_29  and  C_30
REMARK   15  A    between atoms: C_31  and  O_33
REMARK   16  A    between atoms: O_33  and  C_34
REMARK   17  A    between atoms: C_34  and  C_35
REMARK                            x       y       z     vdW  Elec       q    Type
REMARK                         _______ _______ _______ _____ _____    ______ ____
ROOT
ATOM      1  C   UNL     1      -1.325  -0.139  -0.964  0.00  0.00    +0.161 A 
ATOM      2  N   UNL     1      -0.868  -0.750   0.158  0.00  0.00    -0.232 NA
ATOM      3  C   UNL     1       0.338  -1.373   0.200  0.00  0.00    +0.057 A 
ATOM      4  C   UNL     1       1.149  -1.410  -0.961  0.00  0.00    +0.112 A 
ATOM      5  C   UNL     1       0.674  -0.722  -2.103  0.00  0.00    +0.115 A 
ATOM      6  N   UNL     1      -0.546  -0.129  -2.075  0.00  0.00    -0.220 NA
ENDROOT
BRANCH   1  10
ATOM      7  C   UNL     1      -5.175   1.798  -0.987  0.00  0.00    +0.121 A 
ATOM      8  C   UNL     1      -4.364   1.814  -2.127  0.00  0.00    -0.019 A 
ATOM      9  C   UNL     1      -3.116   1.186  -2.123  0.00  0.00    -0.048 A 
ATOM     10  C   UNL     1      -2.650   0.528  -0.970  0.00  0.00    +0.019 A 
ATOM     11  C   UNL     1      -3.464   0.516   0.177  0.00  0.00    -0.048 A 
ATOM     12  C   UNL     1      -4.713   1.145   0.171  0.00  0.00    -0.019 A 
ATOM     13  H   UNL     1      -4.706   2.315  -3.023  0.00  0.00    +0.065 HD
ATOM     14  H   UNL     1      -2.517   1.219  -3.024  0.00  0.00    +0.063 HD
ATOM     15  H   UNL     1      -3.138   0.021   1.083  0.00  0.00    +0.063 HD
ATOM     16  H   UNL     1      -5.305   1.116   1.074  0.00  0.00    +0.065 HD
BRANCH   7  17
ATOM     17  O   UNL     1      -6.420   2.446  -1.051  0.00  0.00    -0.492 OA
BRANCH  17  18
ATOM     18  C   UNL     1      -7.410   2.442  -0.023  0.00  0.00    +0.090 C 
ATOM     19  H   UNL     1      -6.950   2.692   0.955  0.00  0.00    +0.070 HD
ATOM     20  H   UNL     1      -8.148   3.239  -0.255  0.00  0.00    +0.070 HD
BRANCH  18  21
ATOM     21  C   UNL     1      -8.139   1.091   0.014  0.00  0.00    -0.019 C 
ATOM     22  H   UNL     1      -8.568   0.900  -0.993  0.00  0.00    +0.030 HD
ATOM     23  H   UNL     1      -7.424   0.269   0.230  0.00  0.00    +0.030 HD
BRANCH  21  24
ATOM     24  C   UNL     1      -9.282   1.067   1.039  0.00  0.00    -0.053 C 
ATOM     25  H   UNL     1      -9.945   1.948   0.897  0.00  0.00    +0.026 HD
ATOM     26  H   UNL     1      -9.893   0.155   0.862  0.00  0.00    +0.026 HD
BRANCH  24  27
ATOM     27  C   UNL     1      -8.778   1.031   2.482  0.00  0.00    -0.065 C 
ATOM     28  H   UNL     1      -9.640   0.901   3.170  0.00  0.00    +0.023 HD
ATOM     29  H   UNL     1      -8.078   0.181   2.628  0.00  0.00    +0.023 HD
ATOM     30  H   UNL     1      -8.267   1.980   2.744  0.00  0.00    +0.023 HD
ENDBRANCH  24  27
ENDBRANCH  21  24
ENDBRANCH  18  21
ENDBRANCH  17  18
ENDBRANCH   7  17
ENDBRANCH   1  10
BRANCH   3  31
ATOM     31  C   UNL     1       0.759  -1.992   1.502  0.00  0.00    -0.021 C 
ATOM     32  H   UNL     1       0.141  -1.595   2.335  0.00  0.00    +0.029 HD
ATOM     33  H   UNL     1       0.620  -3.092   1.459  0.00  0.00    +0.029 HD
ATOM     34  H   UNL     1       1.820  -1.750   1.723  0.00  0.00    +0.029 HD
ENDBRANCH   3  31
BRANCH   4  35
ATOM     35  C   UNL     1       2.420  -2.185  -0.988  0.00  0.00    +0.344 C 
ATOM     36  O   UNL     1       3.407  -1.770  -1.652  0.00  0.00    -0.245 OA
BRANCH  35  37
ATOM     37  O   UNL     1       2.519  -3.385  -0.274  0.00  0.00    -0.461 OA
BRANCH  37  38
ATOM     38  C   UNL     1       3.691  -4.197  -0.258  0.00  0.00    +0.090 C 
ATOM     39  H   UNL     1       4.594  -3.571  -0.087  0.00  0.00    +0.069 HD
ATOM     40  H   UNL     1       3.609  -4.918   0.583  0.00  0.00    +0.069 HD
BRANCH  38  41
ATOM     41  C   UNL     1       3.824  -4.976  -1.560  0.00  0.00    -0.031 C 
ATOM     42  H   UNL     1       4.709  -5.645  -1.507  0.00  0.00    +0.026 HD
ATOM     43  H   UNL     1       3.954  -4.282  -2.417  0.00  0.00    +0.026 HD
ATOM     44  H   UNL     1       2.916  -5.594  -1.726  0.00  0.00    +0.026 HD
ENDBRANCH  38  41
ENDBRANCH  37  38
ENDBRANCH  35  37
ENDBRANCH   4  35
BRANCH   5  45
ATOM     45  S   UNL     1       1.622  -0.599  -3.630  0.00  0.00    -0.096 S 
BRANCH  45  46
ATOM     46  C   UNL     1       2.015   1.180  -3.447  0.00  0.00    +0.077 C 
ATOM     47  H   UNL     1       1.072   1.768  -3.483  0.00  0.00    +0.047 HD
ATOM     48  H   UNL     1       2.639   1.494  -4.309  0.00  0.00    +0.047 HD
BRANCH  46  49
ATOM     49  C   UNL     1       2.755   1.464  -2.175  0.00  0.00    +0.227 C 
ATOM     50  O   UNL     1       2.165   2.074  -1.242  0.00  0.00    -0.275 OA
ATOM     51  N   UNL     1       4.128   1.068  -2.035  0.00  0.00    -0.285 N 
ATOM     52  H   UNL     1       4.662   0.856  -2.908  0.00  0.00    +0.155 HD
BRANCH  51  53
ATOM     53  C   UNL     1       4.822   0.983  -0.778  0.00  0.00    +0.034 A 
ATOM     54  C   UNL     1       6.214   1.150  -0.750  0.00  0.00    -0.037 A 
ATOM     55  C   UNL     1       6.921   1.033   0.450  0.00  0.00    -0.018 A 
ATOM     56  C   UNL     1       6.244   0.729   1.646  0.00  0.00    +0.120 A 
ATOM     57  C   UNL     1       4.858   0.542   1.615  0.00  0.00    -0.018 A 
ATOM     58  C   UNL     1       4.150   0.662   0.416  0.00  0.00    -0.037 A 
ATOM     59  H   UNL     1       6.752   1.377  -1.662  0.00  0.00    +0.064 HD
ATOM     60  H   UNL     1       7.993   1.177   0.436  0.00  0.00    +0.065 HD
ATOM     61  H   UNL     1       4.327   0.292   2.525  0.00  0.00    +0.065 HD
ATOM     62  H   UNL     1       3.086   0.473   0.424  0.00  0.00    +0.064 HD
BRANCH  56  63
ATOM     63  O   UNL     1       6.907   0.599   2.875  0.00  0.00    -0.495 OA
BRANCH  63  64
ATOM     64  C   UNL     1       8.311   0.758   3.051  0.00  0.00    +0.079 C 
ATOM     65  H   UNL     1       8.618   1.785   2.760  0.00  0.00    +0.066 HD
ATOM     66  H   UNL     1       8.562   0.602   4.120  0.00  0.00    +0.066 HD
ATOM     67  H   UNL     1       8.860   0.008   2.444  0.00  0.00    +0.066 HD
ENDBRANCH  63  64
ENDBRANCH  56  63
ENDBRANCH  51  53
ENDBRANCH  46  49
ENDBRANCH  45  46
ENDBRANCH   5  45
TORSDOF 17
