REMARK  Name = 
REMARK  17 active torsions:
REMARK  status: ('A' for Active; 'I' for Inactive)
REMARK    1  A    between atoms: C_1  and  C_2
REMARK    2  A    between atoms: C_2  and  C_3
REMARK    3  A    between atoms: C_3  and  C_4
REMARK    4  A    between atoms: C_4  and  O_5
REMARK    5  A    between atoms: O_5  and  C_6
REMARK    6  A    between atoms: C_9  and  C_12
REMARK    7  A    between atoms: C_14  and  C_36
REMARK    8  A    between atoms: C_15  and  C_31
REMARK    9  A    between atoms: C_16  and  S_18
REMARK   10  A    between atoms: S_18  and  C_19
REMARK   11  A    between atoms: C_19  and  C_20
REMARK   12  A    between atoms: N_22  and  C_23
REMARK   13  A    between atoms: C_26  and  O_29
REMARK   14  A    between atoms: O_29  and  C_30
REMARK   15  A    between atoms: C_31  and  O_33
REMARK   16  A    between atoms: O_33  and  C_34
REMARK   17  A    between atoms: C_34  and  C_35
REMARK                            x       y       z     vdW  Elec       q    Type
REMARK                         _______ _______ _______ _____ _____    ______ ____
ROOT
ATOM      1  C   UNL     1      -2.207  -0.816  -0.960  0.00  0.00    +0.161 A 
ATOM      2  N   UNL     1      -2.077  -1.917  -1.745  0.00  0.00    -0.232 NA
ATOM      3  C   UNL     1      -0.933  -2.184  -2.427  0.00  0.00    +0.057 A 
ATOM      4  C   UNL     1       0.170  -1.303  -2.318  0.00  0.00    +0.112 A 
ATOM      5  C   UNL     1       0.007  -0.160  -1.502  0.00  0.00    +0.115 A 
ATOM      6  N   UNL     1      -1.166   0.047  -0.852  0.00  0.00    -0.220 NA
ENDROOT
BRANCH   1  10
ATOM      7  C   UNL     1      -5.885  -0.076   1.160  0.00  0.00    +0.121 A 
ATOM      8  C   UNL     1      -4.803   0.816   1.279  0.00  0.00    -0.019 A 
ATOM      9  C   UNL     1      -3.611   0.575   0.591  0.00  0.00    -0.048 A 
ATOM     10  C   UNL     1      -3.473  -0.560  -0.230  0.00  0.00    +0.019 A 
ATOM     11  C   UNL     1      -4.559  -1.447  -0.345  0.00  0.00    -0.048 A 
ATOM     12  C   UNL     1      -5.751  -1.204   0.344  0.00  0.00    -0.019 A 
ATOM     13  H   UNL     1      -4.873   1.698   1.900  0.00  0.00    +0.065 HD
ATOM     14  H   UNL     1      -2.796   1.280   0.704  0.00  0.00    +0.063 HD
ATOM     15  H   UNL     1      -4.492  -2.331  -0.967  0.00  0.00    +0.063 HD
ATOM     16  H   UNL     1      -6.576  -1.898   0.245  0.00  0.00    +0.065 HD
BRANCH   7  17
ATOM     17  O   UNL     1      -7.101   0.121   1.829  0.00  0.00    -0.492 OA
BRANCH  17  18
ATOM     18  C   UNL     1      -7.375   1.219   2.698  0.00  0.00    +0.090 C 
ATOM     19  H   UNL     1      -7.287   2.170   2.130  0.00  0.00    +0.070 HD
ATOM     20  H   UNL     1      -6.647   1.231   3.538  0.00  0.00    +0.070 HD
BRANCH  18  21
ATOM     21  C   UNL     1      -8.796   1.106   3.250  0.00  0.00    -0.019 C 
ATOM     22  H   UNL     1      -9.020   2.020   3.843  0.00  0.00    +0.030 HD
ATOM     23  H   UNL     1      -9.514   1.060   2.401  0.00  0.00    +0.030 HD
BRANCH  21  24
ATOM     24  C   UNL     1      -8.962  -0.132   4.140  0.00  0.00    -0.053 C 
ATOM     25  H   UNL     1      -8.241  -0.085   4.986  0.00  0.00    +0.026 HD
ATOM     26  H   UNL     1      -8.754  -1.052   3.551  0.00  0.00    +0.026 HD
BRANCH  24  27
ATOM     27  C   UNL     1     -10.377  -0.220   4.702  0.00  0.00    -0.065 C 
ATOM     28  H   UNL     1     -10.604   0.675   5.320  0.00  0.00    +0.023 HD
ATOM     29  H   UNL     1     -11.117  -0.292   3.876  0.00  0.00    +0.023 HD
ATOM     30  H   UNL     1     -10.468  -1.124   5.340  0.00  0.00    +0.023 HD
ENDBRANCH  24  27
ENDBRANCH  21  24
ENDBRANCH  18  21
ENDBRANCH  17  18
ENDBRANCH   7  17
ENDBRANCH   1  10
BRANCH   3  31
ATOM     31  C   UNL     1      -0.900  -3.416  -3.285  0.00  0.00    -0.021 C 
ATOM     32  H   UNL     1      -1.925  -3.827  -3.413  0.00  0.00    +0.029 HD
ATOM     33  H   UNL     1      -0.272  -4.194  -2.803  0.00  0.00    +0.029 HD
ATOM     34  H   UNL     1      -0.500  -3.176  -4.293  0.00  0.00    +0.029 HD
ENDBRANCH   3  31
BRANCH   4  35
ATOM     35  C   UNL     1       1.454  -1.572  -3.016  0.00  0.00    +0.344 C 
ATOM     36  O   UNL     1       1.894  -2.751  -3.097  0.00  0.00    -0.245 OA
BRANCH  35  37
ATOM     37  O   UNL     1       2.183  -0.516  -3.570  0.00  0.00    -0.461 OA
BRANCH  37  38
ATOM     38  C   UNL     1       3.438  -0.700  -4.218  0.00  0.00    +0.090 C 
ATOM     39  H   UNL     1       3.297  -1.300  -5.143  0.00  0.00    +0.069 HD
ATOM     40  H   UNL     1       4.138  -1.236  -3.541  0.00  0.00    +0.069 HD
BRANCH  38  41
ATOM     41  C   UNL     1       4.028   0.654  -4.573  0.00  0.00    -0.031 C 
ATOM     42  H   UNL     1       3.348   1.194  -5.266  0.00  0.00    +0.026 HD
ATOM     43  H   UNL     1       5.013   0.517  -5.066  0.00  0.00    +0.026 HD
ATOM     44  H   UNL     1       4.166   1.260  -3.652  0.00  0.00    +0.026 HD
ENDBRANCH  38  41
ENDBRANCH  37  38
ENDBRANCH  35  37
ENDBRANCH   4  35
BRANCH   5  45
ATOM     45  S   UNL     1       1.321   1.042  -1.247  0.00  0.00    -0.096 S 
BRANCH  45  46
ATOM     46  C   UNL     1       2.058   0.139   0.152  0.00  0.00    +0.077 C 
ATOM     47  H   UNL     1       1.407   0.245   1.046  0.00  0.00    +0.047 HD
ATOM     48  H   UNL     1       2.154  -0.941  -0.091  0.00  0.00    +0.047 HD
BRANCH  46  49
ATOM     49  C   UNL     1       3.415   0.697   0.428  0.00  0.00    +0.227 C 
ATOM     50  O   UNL     1       3.548   1.595   1.303  0.00  0.00    -0.275 OA
ATOM     51  N   UNL     1       4.532   0.278  -0.371  0.00  0.00    -0.285 N 
ATOM     52  H   UNL     1       4.327  -0.276  -1.233  0.00  0.00    +0.155 HD
BRANCH  51  53
ATOM     53  C   UNL     1       5.892   0.685  -0.143  0.00  0.00    +0.034 A 
ATOM     54  C   UNL     1       6.753   0.845  -1.239  0.00  0.00    -0.037 A 
ATOM     55  C   UNL     1       8.085   1.220  -1.045  0.00  0.00    -0.018 A 
ATOM     56  C   UNL     1       8.586   1.424   0.246  0.00  0.00    +0.120 A 
ATOM     57  C   UNL     1       7.731   1.240   1.349  0.00  0.00    -0.018 A 
ATOM     58  C   UNL     1       6.398   0.867   1.155  0.00  0.00    -0.037 A 
ATOM     59  H   UNL     1       6.387   0.689  -2.246  0.00  0.00    +0.064 HD
ATOM     60  H   UNL     1       8.733   1.350  -1.902  0.00  0.00    +0.065 HD
ATOM     61  H   UNL     1       8.090   1.375   2.361  0.00  0.00    +0.065 HD
ATOM     62  H   UNL     1       5.774   0.695   2.022  0.00  0.00    +0.064 HD
BRANCH  56  63
ATOM     63  O   UNL     1       9.929   1.800   0.388  0.00  0.00    -0.495 OA
BRANCH  63  64
ATOM     64  C   UNL     1      10.569   2.040   1.637  0.00  0.00    +0.079 C 
ATOM     65  H   UNL     1      10.063   2.872   2.172  0.00  0.00    +0.066 HD
ATOM     66  H   UNL     1      10.551   1.119   2.258  0.00  0.00    +0.066 HD
ATOM     67  H   UNL     1      11.625   2.325   1.455  0.00  0.00    +0.066 HD
ENDBRANCH  63  64
ENDBRANCH  56  63
ENDBRANCH  51  53
ENDBRANCH  46  49
ENDBRANCH  45  46
ENDBRANCH   5  45
TORSDOF 17
