REMARK  Name = 
REMARK  17 active torsions:
REMARK  status: ('A' for Active; 'I' for Inactive)
REMARK    1  A    between atoms: C_1  and  C_2
REMARK    2  A    between atoms: C_2  and  C_3
REMARK    3  A    between atoms: C_3  and  C_4
REMARK    4  A    between atoms: C_4  and  O_5
REMARK    5  A    between atoms: O_5  and  C_6
REMARK    6  A    between atoms: C_9  and  C_12
REMARK    7  A    between atoms: C_14  and  C_36
REMARK    8  A    between atoms: C_15  and  C_31
REMARK    9  A    between atoms: C_16  and  S_18
REMARK   10  A    between atoms: S_18  and  C_19
REMARK   11  A    between atoms: C_19  and  C_20
REMARK   12  A    between atoms: N_22  and  C_23
REMARK   13  A    between atoms: C_26  and  O_29
REMARK   14  A    between atoms: O_29  and  C_30
REMARK   15  A    between atoms: C_31  and  O_33
REMARK   16  A    between atoms: O_33  and  C_34
REMARK   17  A    between atoms: C_34  and  C_35
REMARK                            x       y       z     vdW  Elec       q    Type
REMARK                         _______ _______ _______ _____ _____    ______ ____
ROOT
ATOM      1  C   UNL     1      -1.723  -0.696   0.734  0.00  0.00    +0.161 A 
ATOM      2  N   UNL     1      -1.149  -0.657   1.963  0.00  0.00    -0.232 NA
ATOM      3  C   UNL     1       0.143  -1.024   2.167  0.00  0.00    +0.057 A 
ATOM      4  C   UNL     1       0.932  -1.449   1.070  0.00  0.00    +0.112 A 
ATOM      5  C   UNL     1       0.312  -1.481  -0.201  0.00  0.00    +0.115 A 
ATOM      6  N   UNL     1      -0.987  -1.110  -0.327  0.00  0.00    -0.220 NA
ENDROOT
BRANCH   1  10
ATOM      7  C   UNL     1      -5.833   0.487   0.212  0.00  0.00    +0.121 A 
ATOM      8  C   UNL     1      -5.069   0.067  -0.892  0.00  0.00    -0.019 A 
ATOM      9  C   UNL     1      -3.735  -0.317  -0.721  0.00  0.00    -0.048 A 
ATOM     10  C   UNL     1      -3.139  -0.289   0.553  0.00  0.00    +0.019 A 
ATOM     11  C   UNL     1      -3.910   0.133   1.652  0.00  0.00    -0.048 A 
ATOM     12  C   UNL     1      -5.243   0.516   1.479  0.00  0.00    -0.019 A 
ATOM     13  H   UNL     1      -5.495   0.033  -1.885  0.00  0.00    +0.065 HD
ATOM     14  H   UNL     1      -3.173  -0.635  -1.590  0.00  0.00    +0.063 HD
ATOM     15  H   UNL     1      -3.486   0.168   2.647  0.00  0.00    +0.063 HD
ATOM     16  H   UNL     1      -5.821   0.838   2.336  0.00  0.00    +0.065 HD
BRANCH   7  17
ATOM     17  O   UNL     1      -7.174   0.883   0.092  0.00  0.00    -0.492 OA
BRANCH  17  18
ATOM     18  C   UNL     1      -7.900   0.913  -1.135  0.00  0.00    +0.090 C 
ATOM     19  H   UNL     1      -7.940  -0.111  -1.565  0.00  0.00    +0.070 HD
ATOM     20  H   UNL     1      -7.396   1.590  -1.859  0.00  0.00    +0.070 HD
BRANCH  18  21
ATOM     21  C   UNL     1      -9.329   1.396  -0.885  0.00  0.00    -0.019 C 
ATOM     22  H   UNL     1      -9.901   1.317  -1.835  0.00  0.00    +0.030 HD
ATOM     23  H   UNL     1      -9.811   0.732  -0.133  0.00  0.00    +0.030 HD
BRANCH  21  24
ATOM     24  C   UNL     1      -9.357   2.848  -0.392  0.00  0.00    -0.053 C 
ATOM     25  H   UNL     1      -8.799   2.933   0.566  0.00  0.00    +0.026 HD
ATOM     26  H   UNL     1      -8.871   3.509  -1.142  0.00  0.00    +0.026 HD
BRANCH  24  27
ATOM     27  C   UNL     1     -10.789   3.325  -0.168  0.00  0.00    -0.065 C 
ATOM     28  H   UNL     1     -11.290   2.695   0.597  0.00  0.00    +0.023 HD
ATOM     29  H   UNL     1     -11.364   3.277  -1.117  0.00  0.00    +0.023 HD
ATOM     30  H   UNL     1     -10.779   4.376   0.189  0.00  0.00    +0.023 HD
ENDBRANCH  24  27
ENDBRANCH  21  24
ENDBRANCH  18  21
ENDBRANCH  17  18
ENDBRANCH   7  17
ENDBRANCH   1  10
BRANCH   3  31
ATOM     31  C   UNL     1       0.671  -0.971   3.572  0.00  0.00    -0.021 C 
ATOM     32  H   UNL     1       1.373  -0.119   3.680  0.00  0.00    +0.029 HD
ATOM     33  H   UNL     1      -0.162  -0.828   4.294  0.00  0.00    +0.029 HD
ATOM     34  H   UNL     1       1.184  -1.922   3.829  0.00  0.00    +0.029 HD
ENDBRANCH   3  31
BRANCH   4  35
ATOM     35  C   UNL     1       2.352  -1.849   1.246  0.00  0.00    +0.344 C 
ATOM     36  O   UNL     1       3.089  -1.228   2.060  0.00  0.00    -0.245 OA
BRANCH  35  37
ATOM     37  O   UNL     1       2.880  -2.906   0.498  0.00  0.00    -0.461 OA
BRANCH  37  38
ATOM     38  C   UNL     1       4.229  -3.341   0.627  0.00  0.00    +0.090 C 
ATOM     39  H   UNL     1       4.379  -3.799   1.629  0.00  0.00    +0.069 HD
ATOM     40  H   UNL     1       4.918  -2.477   0.517  0.00  0.00    +0.069 HD
BRANCH  38  41
ATOM     41  C   UNL     1       4.538  -4.364  -0.453  0.00  0.00    -0.031 C 
ATOM     42  H   UNL     1       4.391  -3.910  -1.456  0.00  0.00    +0.026 HD
ATOM     43  H   UNL     1       3.866  -5.242  -0.348  0.00  0.00    +0.026 HD
ATOM     44  H   UNL     1       5.592  -4.701  -0.360  0.00  0.00    +0.026 HD
ENDBRANCH  38  41
ENDBRANCH  37  38
ENDBRANCH  35  37
ENDBRANCH   4  35
BRANCH   5  45
ATOM     45  S   UNL     1       1.178  -1.974  -1.701  0.00  0.00    -0.096 S 
BRANCH  45  46
ATOM     46  C   UNL     1       1.661  -0.279  -2.176  0.00  0.00    +0.077 C 
ATOM     47  H   UNL     1       1.859  -0.265  -3.268  0.00  0.00    +0.047 HD
ATOM     48  H   UNL     1       0.836   0.439  -1.976  0.00  0.00    +0.047 HD
BRANCH  46  49
ATOM     49  C   UNL     1       2.905   0.128  -1.452  0.00  0.00    +0.227 C 
ATOM     50  O   UNL     1       2.816   0.887  -0.450  0.00  0.00    -0.275 OA
ATOM     51  N   UNL     1       4.174  -0.412  -1.857  0.00  0.00    -0.285 N 
ATOM     52  H   UNL     1       4.163  -1.228  -2.510  0.00  0.00    +0.155 HD
BRANCH  51  53
ATOM     53  C   UNL     1       5.446   0.015  -1.339  0.00  0.00    +0.034 A 
ATOM     54  C   UNL     1       5.673   1.345  -0.940  0.00  0.00    -0.037 A 
ATOM     55  C   UNL     1       6.925   1.734  -0.454  0.00  0.00    -0.018 A 
ATOM     56  C   UNL     1       7.978   0.803  -0.374  0.00  0.00    +0.120 A 
ATOM     57  C   UNL     1       7.757  -0.512  -0.798  0.00  0.00    -0.018 A 
ATOM     58  C   UNL     1       6.507  -0.901  -1.285  0.00  0.00    -0.037 A 
ATOM     59  H   UNL     1       4.897   2.092  -1.028  0.00  0.00    +0.064 HD
ATOM     60  H   UNL     1       7.067   2.763  -0.152  0.00  0.00    +0.065 HD
ATOM     61  H   UNL     1       8.560  -1.237  -0.750  0.00  0.00    +0.065 HD
ATOM     62  H   UNL     1       6.360  -1.923  -1.611  0.00  0.00    +0.064 HD
BRANCH  56  63
ATOM     63  O   UNL     1       9.249   1.143   0.109  0.00  0.00    -0.495 OA
BRANCH  63  64
ATOM     64  C   UNL     1       9.613   2.440   0.572  0.00  0.00    +0.079 C 
ATOM     65  H   UNL     1      10.672   2.425   0.899  0.00  0.00    +0.066 HD
ATOM     66  H   UNL     1       9.504   3.182  -0.247  0.00  0.00    +0.066 HD
ATOM     67  H   UNL     1       8.978   2.729   1.436  0.00  0.00    +0.066 HD
ENDBRANCH  63  64
ENDBRANCH  56  63
ENDBRANCH  51  53
ENDBRANCH  46  49
ENDBRANCH  45  46
ENDBRANCH   5  45
TORSDOF 17
