REMARK  Name = 
REMARK  4 active torsions:
REMARK  status: ('A' for Active; 'I' for Inactive)
REMARK    1  A    between atoms: C_3  and  O_13
REMARK    2  A    between atoms: C_4  and  C_8
REMARK    3  A    between atoms: C_9  and  C_10
REMARK    4  A    between atoms: O_13  and  C_14
REMARK                            x       y       z     vdW  Elec       q    Type
REMARK                         _______ _______ _______ _____ _____    ______ ____
ROOT
ATOM      1  C   UNL     1      -1.196   2.598   1.289  0.00  0.00    -0.023 A 
ATOM      2  C   UNL     1      -0.222   1.887   0.588  0.00  0.00    -0.016 A 
ATOM      3  C   UNL     1      -0.521   0.634   0.021  0.00  0.00    +0.136 A 
ATOM      4  C   UNL     1      -1.829   0.113   0.131  0.00  0.00    +0.020 A 
ATOM      5  C   UNL     1      -2.797   0.838   0.856  0.00  0.00    -0.016 A 
ATOM      6  C   UNL     1      -2.480   2.072   1.429  0.00  0.00    +0.124 A 
ATOM      7  F   UNL     1      -3.420   2.759   2.123  0.00  0.00    -0.205 F 
ATOM      8  H   UNL     1      -0.954   3.560   1.724  0.00  0.00    +0.065 HD
ATOM      9  H   UNL     1       0.762   2.322   0.471  0.00  0.00    +0.066 HD
ATOM     10  H   UNL     1      -3.794   0.445   1.004  0.00  0.00    +0.065 HD
ENDROOT
BRANCH   4  11
ATOM     11  C   UNL     1      -2.142  -1.208  -0.471  0.00  0.00    -0.044 C 
ATOM     12  C   UNL     1      -3.372  -1.564  -0.867  0.00  0.00    +0.027 C 
ATOM     13  H   UNL     1      -1.321  -1.897  -0.632  0.00  0.00    +0.063 HD
ATOM     14  H   UNL     1      -4.200  -0.874  -0.775  0.00  0.00    +0.069 HD
BRANCH  12  15
ATOM     15  C   UNL     1      -3.655  -2.876  -1.472  0.00  0.00    +0.380 C 
ATOM     16  O   UNL     1      -2.745  -3.735  -1.623  0.00  0.00    -0.241 OA
ATOM     17  O   UNL     1      -4.948  -3.173  -1.883  0.00  0.00    -0.241 OA
ENDBRANCH  12  15
ENDBRANCH   4  11
BRANCH   3  18
ATOM     18  O   UNL     1       0.448  -0.080  -0.703  0.00  0.00    -0.455 OA
BRANCH  18  19
ATOM     19  C   UNL     1       1.822  -0.098  -0.424  0.00  0.00    +0.131 A 
ATOM     20  C   UNL     1       2.718  -0.318  -1.477  0.00  0.00    -0.001 A 
ATOM     21  C   UNL     1       4.096  -0.358  -1.238  0.00  0.00    +0.046 A 
ATOM     22  C   UNL     1       4.585  -0.191   0.062  0.00  0.00    -0.025 A 
ATOM     23  C   UNL     1       3.697   0.009   1.123  0.00  0.00    +0.046 A 
ATOM     24  C   UNL     1       2.318   0.049   0.884  0.00  0.00    -0.001 A 
ATOM     25 CL   UNL     1       4.309   0.200   2.756  0.00  0.00    -0.083 Cl
ATOM     26 CL   UNL     1       5.210  -0.621  -2.567  0.00  0.00    -0.083 Cl
ATOM     27  H   UNL     1       2.341  -0.450  -2.484  0.00  0.00    +0.067 HD
ATOM     28  H   UNL     1       5.651  -0.223   0.247  0.00  0.00    +0.065 HD
ATOM     29  H   UNL     1       1.639   0.175   1.717  0.00  0.00    +0.067 HD
ENDBRANCH  18  19
ENDBRANCH   3  18
TORSDOF 4
