REMARK  Name = 
REMARK  4 active torsions:
REMARK  status: ('A' for Active; 'I' for Inactive)
REMARK    1  A    between atoms: C_3  and  O_13
REMARK    2  A    between atoms: C_4  and  C_8
REMARK    3  A    between atoms: C_9  and  C_10
REMARK    4  A    between atoms: O_13  and  C_14
REMARK                            x       y       z     vdW  Elec       q    Type
REMARK                         _______ _______ _______ _____ _____    ______ ____
ROOT
ATOM      1  C   UNL     1      -0.463  -3.350  -1.943  0.00  0.00    -0.023 A 
ATOM      2  C   UNL     1       0.556  -2.406  -1.811  0.00  0.00    -0.016 A 
ATOM      3  C   UNL     1       0.284  -1.132  -1.297  0.00  0.00    +0.136 A 
ATOM      4  C   UNL     1      -1.045  -0.783  -0.949  0.00  0.00    +0.020 A 
ATOM      5  C   UNL     1      -2.063  -1.746  -1.094  0.00  0.00    -0.016 A 
ATOM      6  C   UNL     1      -1.770  -3.023  -1.580  0.00  0.00    +0.124 A 
ATOM      7  F   UNL     1      -2.760  -3.938  -1.720  0.00  0.00    -0.205 F 
ATOM      8  H   UNL     1      -0.239  -4.335  -2.330  0.00  0.00    +0.065 HD
ATOM      9  H   UNL     1       1.568  -2.670  -2.091  0.00  0.00    +0.066 HD
ATOM     10  H   UNL     1      -3.093  -1.504  -0.865  0.00  0.00    +0.065 HD
ENDROOT
BRANCH   4  11
ATOM     11  C   UNL     1      -1.367   0.599  -0.521  0.00  0.00    -0.044 C 
ATOM     12  C   UNL     1      -2.326   0.877   0.372  0.00  0.00    +0.027 C 
ATOM     13  H   UNL     1      -0.759   1.405  -0.913  0.00  0.00    +0.063 HD
ATOM     14  H   UNL     1      -2.905   0.078   0.817  0.00  0.00    +0.069 HD
BRANCH  12  15
ATOM     15  C   UNL     1      -2.607   2.251   0.821  0.00  0.00    +0.380 C 
ATOM     16  O   UNL     1      -1.959   3.231   0.366  0.00  0.00    -0.241 OA
ATOM     17  O   UNL     1      -3.601   2.470   1.765  0.00  0.00    -0.241 OA
ENDBRANCH  12  15
ENDBRANCH   4  11
BRANCH   3  18
ATOM     18  O   UNL     1       1.351  -0.232  -1.161  0.00  0.00    -0.455 OA
BRANCH  18  19
ATOM     19  C   UNL     1       1.682   0.443   0.024  0.00  0.00    +0.131 A 
ATOM     20  C   UNL     1       1.232   0.007   1.285  0.00  0.00    -0.001 A 
ATOM     21  C   UNL     1       1.575   0.718   2.440  0.00  0.00    +0.046 A 
ATOM     22  C   UNL     1       2.380   1.857   2.347  0.00  0.00    -0.025 A 
ATOM     23  C   UNL     1       2.847   2.284   1.099  0.00  0.00    +0.046 A 
ATOM     24  C   UNL     1       2.502   1.575  -0.057  0.00  0.00    -0.001 A 
ATOM     25 CL   UNL     1       3.863   3.709   0.984  0.00  0.00    -0.083 Cl
ATOM     26 CL   UNL     1       0.995   0.179   4.005  0.00  0.00    -0.083 Cl
ATOM     27  H   UNL     1       0.619  -0.881   1.373  0.00  0.00    +0.067 HD
ATOM     28  H   UNL     1       2.646   2.406   3.241  0.00  0.00    +0.065 HD
ATOM     29  H   UNL     1       2.860   1.910  -1.022  0.00  0.00    +0.067 HD
ENDBRANCH  18  19
ENDBRANCH   3  18
TORSDOF 4
