REMARK  Name = 
REMARK  4 active torsions:
REMARK  status: ('A' for Active; 'I' for Inactive)
REMARK    1  A    between atoms: C_3  and  O_13
REMARK    2  A    between atoms: C_4  and  C_8
REMARK    3  A    between atoms: C_9  and  C_10
REMARK    4  A    between atoms: O_13  and  C_14
REMARK                            x       y       z     vdW  Elec       q    Type
REMARK                         _______ _______ _______ _____ _____    ______ ____
ROOT
ATOM      1  C   UNL     1       0.223  -2.268  -2.448  0.00  0.00    -0.023 A 
ATOM      2  C   UNL     1      -0.279  -1.144  -1.790  0.00  0.00    -0.016 A 
ATOM      3  C   UNL     1       0.530  -0.419  -0.896  0.00  0.00    +0.136 A 
ATOM      4  C   UNL     1       1.862  -0.838  -0.669  0.00  0.00    +0.020 A 
ATOM      5  C   UNL     1       2.360  -1.955  -1.360  0.00  0.00    -0.016 A 
ATOM      6  C   UNL     1       1.542  -2.671  -2.236  0.00  0.00    +0.124 A 
ATOM      7  F   UNL     1       2.031  -3.755  -2.887  0.00  0.00    -0.205 F 
ATOM      8  H   UNL     1      -0.407  -2.818  -3.135  0.00  0.00    +0.065 HD
ATOM      9  H   UNL     1      -1.290  -0.821  -2.003  0.00  0.00    +0.066 HD
ATOM     10  H   UNL     1       3.382  -2.281  -1.207  0.00  0.00    +0.065 HD
ENDROOT
BRANCH   4  11
ATOM     11  C   UNL     1       2.773  -0.122   0.253  0.00  0.00    -0.044 C 
ATOM     12  C   UNL     1       2.377   0.355   1.439  0.00  0.00    +0.027 C 
ATOM     13  H   UNL     1       3.820  -0.062  -0.023  0.00  0.00    +0.063 HD
ATOM     14  H   UNL     1       1.354   0.219   1.767  0.00  0.00    +0.069 HD
BRANCH  12  15
ATOM     15  C   UNL     1       3.305   1.036   2.355  0.00  0.00    +0.380 C 
ATOM     16  O   UNL     1       2.889   1.444   3.470  0.00  0.00    -0.241 OA
ATOM     17  O   UNL     1       4.636   1.239   2.007  0.00  0.00    -0.241 OA
ENDBRANCH  12  15
ENDBRANCH   4  11
BRANCH   3  18
ATOM     18  O   UNL     1       0.055   0.756  -0.293  0.00  0.00    -0.455 OA
BRANCH  18  19
ATOM     19  C   UNL     1      -1.262   0.972   0.141  0.00  0.00    +0.131 A 
ATOM     20  C   UNL     1      -2.085  -0.084   0.573  0.00  0.00    -0.001 A 
ATOM     21  C   UNL     1      -3.387   0.174   1.016  0.00  0.00    +0.046 A 
ATOM     22  C   UNL     1      -3.870   1.486   1.041  0.00  0.00    -0.025 A 
ATOM     23  C   UNL     1      -3.049   2.542   0.631  0.00  0.00    +0.046 A 
ATOM     24  C   UNL     1      -1.747   2.284   0.189  0.00  0.00    -0.001 A 
ATOM     25 CL   UNL     1      -3.650   4.189   0.674  0.00  0.00    -0.083 Cl
ATOM     26 CL   UNL     1      -4.411  -1.147   1.548  0.00  0.00    -0.083 Cl
ATOM     27  H   UNL     1      -1.713  -1.101   0.586  0.00  0.00    +0.067 HD
ATOM     28  H   UNL     1      -4.877   1.686   1.384  0.00  0.00    +0.065 HD
ATOM     29  H   UNL     1      -1.111   3.103  -0.126  0.00  0.00    +0.067 HD
ENDBRANCH  18  19
ENDBRANCH   3  18
TORSDOF 4
