REMARK  Name = 
REMARK  4 active torsions:
REMARK  status: ('A' for Active; 'I' for Inactive)
REMARK    1  A    between atoms: C_3  and  O_13
REMARK    2  A    between atoms: C_4  and  C_8
REMARK    3  A    between atoms: C_9  and  C_10
REMARK    4  A    between atoms: O_13  and  C_14
REMARK                            x       y       z     vdW  Elec       q    Type
REMARK                         _______ _______ _______ _____ _____    ______ ____
ROOT
ATOM      1  C   UNL     1      -1.674  -3.553  -0.062  0.00  0.00    -0.023 A 
ATOM      2  C   UNL     1      -0.540  -2.990   0.525  0.00  0.00    -0.016 A 
ATOM      3  C   UNL     1      -0.404  -1.600   0.622  0.00  0.00    +0.136 A 
ATOM      4  C   UNL     1      -1.445  -0.758   0.160  0.00  0.00    +0.020 A 
ATOM      5  C   UNL     1      -2.587  -1.342  -0.426  0.00  0.00    -0.016 A 
ATOM      6  C   UNL     1      -2.693  -2.730  -0.542  0.00  0.00    +0.124 A 
ATOM      7  F   UNL     1      -3.799  -3.280  -1.101  0.00  0.00    -0.205 F 
ATOM      8  H   UNL     1      -1.763  -4.629  -0.142  0.00  0.00    +0.065 HD
ATOM      9  H   UNL     1       0.248  -3.636   0.891  0.00  0.00    +0.066 HD
ATOM     10  H   UNL     1      -3.413  -0.730  -0.763  0.00  0.00    +0.065 HD
ENDROOT
BRANCH   4  11
ATOM     11  C   UNL     1      -1.370   0.708   0.367  0.00  0.00    -0.044 C 
ATOM     12  C   UNL     1      -1.886   1.591  -0.497  0.00  0.00    +0.027 C 
ATOM     13  H   UNL     1      -0.824   1.069   1.231  0.00  0.00    +0.063 HD
ATOM     14  H   UNL     1      -2.384   1.248  -1.395  0.00  0.00    +0.069 HD
BRANCH  12  15
ATOM     15  C   UNL     1      -1.766   3.045  -0.301  0.00  0.00    +0.380 C 
ATOM     16  O   UNL     1      -1.179   3.521   0.707  0.00  0.00    -0.241 OA
ATOM     17  O   UNL     1      -2.306   3.908  -1.246  0.00  0.00    -0.241 OA
ENDBRANCH  12  15
ENDBRANCH   4  11
BRANCH   3  18
ATOM     18  O   UNL     1       0.768  -1.089   1.197  0.00  0.00    -0.455 OA
BRANCH  18  19
ATOM     19  C   UNL     1       1.606  -0.137   0.595  0.00  0.00    +0.131 A 
ATOM     20  C   UNL     1       2.510   0.566   1.401  0.00  0.00    -0.001 A 
ATOM     21  C   UNL     1       3.355   1.531   0.842  0.00  0.00    +0.046 A 
ATOM     22  C   UNL     1       3.307   1.792  -0.531  0.00  0.00    -0.025 A 
ATOM     23  C   UNL     1       2.419   1.084  -1.347  0.00  0.00    +0.046 A 
ATOM     24  C   UNL     1       1.576   0.117  -0.790  0.00  0.00    -0.001 A 
ATOM     25 CL   UNL     1       2.363   1.407  -3.070  0.00  0.00    -0.083 Cl
ATOM     26 CL   UNL     1       4.473   2.415   1.865  0.00  0.00    -0.083 Cl
ATOM     27  H   UNL     1       2.545   0.368   2.465  0.00  0.00    +0.067 HD
ATOM     28  H   UNL     1       3.959   2.540  -0.963  0.00  0.00    +0.065 HD
ATOM     29  H   UNL     1       0.904  -0.434  -1.435  0.00  0.00    +0.067 HD
ENDBRANCH  18  19
ENDBRANCH   3  18
TORSDOF 4
