REMARK  Name = 
REMARK  4 active torsions:
REMARK  status: ('A' for Active; 'I' for Inactive)
REMARK    1  A    between atoms: C_3  and  O_13
REMARK    2  A    between atoms: C_4  and  C_8
REMARK    3  A    between atoms: C_9  and  C_10
REMARK    4  A    between atoms: O_13  and  C_14
REMARK                            x       y       z     vdW  Elec       q    Type
REMARK                         _______ _______ _______ _____ _____    ______ ____
ROOT
ATOM      1  C   UNL     1      -0.449  -2.949  -1.013  0.00  0.00    -0.023 A 
ATOM      2  C   UNL     1       0.268  -1.946  -0.360  0.00  0.00    -0.016 A 
ATOM      3  C   UNL     1      -0.363  -0.745   0.013  0.00  0.00    +0.136 A 
ATOM      4  C   UNL     1      -1.741  -0.572  -0.242  0.00  0.00    +0.020 A 
ATOM      5  C   UNL     1      -2.447  -1.590  -0.916  0.00  0.00    -0.016 A 
ATOM      6  C   UNL     1      -1.802  -2.769  -1.296  0.00  0.00    +0.124 A 
ATOM      7  F   UNL     1      -2.493  -3.740  -1.943  0.00  0.00    -0.205 F 
ATOM      8  H   UNL     1       0.047  -3.868  -1.298  0.00  0.00    +0.065 HD
ATOM      9  H   UNL     1       1.312  -2.113  -0.129  0.00  0.00    +0.066 HD
ATOM     10  H   UNL     1      -3.491  -1.470  -1.173  0.00  0.00    +0.065 HD
ENDROOT
BRANCH   4  11
ATOM     11  C   UNL     1      -2.405   0.696   0.157  0.00  0.00    -0.044 C 
ATOM     12  C   UNL     1      -3.713   0.788   0.429  0.00  0.00    +0.027 C 
ATOM     13  H   UNL     1      -1.783   1.577   0.269  0.00  0.00    +0.063 HD
ATOM     14  H   UNL     1      -4.347  -0.088   0.386  0.00  0.00    +0.069 HD
BRANCH  12  15
ATOM     15  C   UNL     1      -4.337   2.058   0.833  0.00  0.00    +0.380 C 
ATOM     16  O   UNL     1      -5.566   2.089   1.099  0.00  0.00    -0.241 OA
ATOM     17  O   UNL     1      -3.590   3.228   0.922  0.00  0.00    -0.241 OA
ENDBRANCH  12  15
ENDBRANCH   4  11
BRANCH   3  18
ATOM     18  O   UNL     1       0.346   0.263   0.688  0.00  0.00    -0.455 OA
BRANCH  18  19
ATOM     19  C   UNL     1       1.697   0.580   0.488  0.00  0.00    +0.131 A 
ATOM     20  C   UNL     1       2.421   1.133   1.551  0.00  0.00    -0.001 A 
ATOM     21  C   UNL     1       3.768   1.477   1.388  0.00  0.00    +0.046 A 
ATOM     22  C   UNL     1       4.395   1.280   0.153  0.00  0.00    -0.025 A 
ATOM     23  C   UNL     1       3.674   0.747  -0.920  0.00  0.00    +0.046 A 
ATOM     24  C   UNL     1       2.328   0.404  -0.757  0.00  0.00    -0.001 A 
ATOM     25 CL   UNL     1       4.456   0.519  -2.474  0.00  0.00    -0.083 Cl
ATOM     26 CL   UNL     1       4.669   2.156   2.731  0.00  0.00    -0.083 Cl
ATOM     27  H   UNL     1       1.937   1.288   2.507  0.00  0.00    +0.067 HD
ATOM     28  H   UNL     1       5.437   1.547   0.027  0.00  0.00    +0.065 HD
ATOM     29  H   UNL     1       1.772   0.019  -1.603  0.00  0.00    +0.067 HD
ENDBRANCH  18  19
ENDBRANCH   3  18
TORSDOF 4
