REMARK  Name = 
REMARK  4 active torsions:
REMARK  status: ('A' for Active; 'I' for Inactive)
REMARK    1  A    between atoms: C_3  and  O_13
REMARK    2  A    between atoms: C_4  and  C_8
REMARK    3  A    between atoms: C_9  and  C_10
REMARK    4  A    between atoms: O_13  and  C_14
REMARK                            x       y       z     vdW  Elec       q    Type
REMARK                         _______ _______ _______ _____ _____    ______ ____
ROOT
ATOM      1  C   UNL     1      -0.922   2.846   0.895  0.00  0.00    -0.023 A 
ATOM      2  C   UNL     1      -0.050   1.966   0.254  0.00  0.00    -0.016 A 
ATOM      3  C   UNL     1      -0.474   0.670  -0.096  0.00  0.00    +0.136 A 
ATOM      4  C   UNL     1      -1.803   0.275   0.169  0.00  0.00    +0.020 A 
ATOM      5  C   UNL     1      -2.666   1.172   0.831  0.00  0.00    -0.016 A 
ATOM      6  C   UNL     1      -2.226   2.448   1.189  0.00  0.00    +0.124 A 
ATOM      7  F   UNL     1      -3.066   3.301   1.825  0.00  0.00    -0.205 F 
ATOM      8  H   UNL     1      -0.585   3.840   1.163  0.00  0.00    +0.065 HD
ATOM      9  H   UNL     1       0.950   2.301   0.014  0.00  0.00    +0.066 HD
ATOM     10  H   UNL     1      -3.674   0.884   1.097  0.00  0.00    +0.065 HD
ENDROOT
BRANCH   4  11
ATOM     11  C   UNL     1      -2.247  -1.093  -0.205  0.00  0.00    -0.044 C 
ATOM     12  C   UNL     1      -3.523  -1.406  -0.468  0.00  0.00    +0.027 C 
ATOM     13  H   UNL     1      -1.488  -1.859  -0.307  0.00  0.00    +0.063 HD
ATOM     14  H   UNL     1      -4.294  -0.648  -0.433  0.00  0.00    +0.069 HD
BRANCH  12  15
ATOM     15  C   UNL     1      -3.937  -2.767  -0.848  0.00  0.00    +0.380 C 
ATOM     16  O   UNL     1      -3.100  -3.707  -0.919  0.00  0.00    -0.241 OA
ATOM     17  O   UNL     1      -5.272  -3.020  -1.131  0.00  0.00    -0.241 OA
ENDBRANCH  12  15
ENDBRANCH   4  11
BRANCH   3  18
ATOM     18  O   UNL     1       0.391  -0.216  -0.759  0.00  0.00    -0.455 OA
BRANCH  18  19
ATOM     19  C   UNL     1       1.777  -0.301  -0.563  0.00  0.00    +0.131 A 
ATOM     20  C   UNL     1       2.580  -0.743  -1.622  0.00  0.00    -0.001 A 
ATOM     21  C   UNL     1       3.966  -0.854  -1.461  0.00  0.00    +0.046 A 
ATOM     22  C   UNL     1       4.555  -0.535  -0.233  0.00  0.00    -0.025 A 
ATOM     23  C   UNL     1       3.759  -0.112   0.836  0.00  0.00    +0.046 A 
ATOM     24  C   UNL     1       2.373  -0.001   0.676  0.00  0.00    -0.001 A 
ATOM     25 CL   UNL     1       4.497   0.269   2.381  0.00  0.00    -0.083 Cl
ATOM     26 CL   UNL     1       4.963  -1.396  -2.798  0.00  0.00    -0.083 Cl
ATOM     27  H   UNL     1       2.125  -0.992  -2.572  0.00  0.00    +0.067 HD
ATOM     28  H   UNL     1       5.627  -0.622  -0.109  0.00  0.00    +0.065 HD
ATOM     29  H   UNL     1       1.765   0.300   1.519  0.00  0.00    +0.067 HD
ENDBRANCH  18  19
ENDBRANCH   3  18
TORSDOF 4
