REMARK  Name = 
REMARK  4 active torsions:
REMARK  status: ('A' for Active; 'I' for Inactive)
REMARK    1  A    between atoms: C_3  and  O_13
REMARK    2  A    between atoms: C_4  and  C_8
REMARK    3  A    between atoms: C_9  and  C_10
REMARK    4  A    between atoms: O_13  and  C_14
REMARK                            x       y       z     vdW  Elec       q    Type
REMARK                         _______ _______ _______ _____ _____    ______ ____
ROOT
ATOM      1  C   UNL     1      -1.535  -2.706   1.116  0.00  0.00    -0.023 A 
ATOM      2  C   UNL     1      -0.512  -1.992   0.491  0.00  0.00    -0.016 A 
ATOM      3  C   UNL     1      -0.791  -0.792  -0.190  0.00  0.00    +0.136 A 
ATOM      4  C   UNL     1      -2.122  -0.315  -0.238  0.00  0.00    +0.020 A 
ATOM      5  C   UNL     1      -3.143  -1.061   0.372  0.00  0.00    -0.016 A 
ATOM      6  C   UNL     1      -2.849  -2.244   1.054  0.00  0.00    +0.124 A 
ATOM      7  F   UNL     1      -3.844  -2.947   1.650  0.00  0.00    -0.205 F 
ATOM      8  H   UNL     1      -1.309  -3.629   1.635  0.00  0.00    +0.065 HD
ATOM      9  H   UNL     1       0.494  -2.391   0.511  0.00  0.00    +0.066 HD
ATOM     10  H   UNL     1      -4.170  -0.716   0.333  0.00  0.00    +0.065 HD
ENDROOT
BRANCH   4  11
ATOM     11  C   UNL     1      -2.492   0.935  -0.940  0.00  0.00    -0.044 C 
ATOM     12  C   UNL     1      -1.751   2.048  -0.878  0.00  0.00    +0.027 C 
ATOM     13  H   UNL     1      -3.447   0.958  -1.453  0.00  0.00    +0.063 HD
ATOM     14  H   UNL     1      -0.841   2.065  -0.291  0.00  0.00    +0.069 HD
BRANCH  12  15
ATOM     15  C   UNL     1      -2.151   3.290  -1.557  0.00  0.00    +0.380 C 
ATOM     16  O   UNL     1      -1.432   4.317  -1.448  0.00  0.00    -0.241 OA
ATOM     17  O   UNL     1      -3.311   3.347  -2.321  0.00  0.00    -0.241 OA
ENDBRANCH  12  15
ENDBRANCH   4  11
BRANCH   3  18
ATOM     18  O   UNL     1       0.221  -0.112  -0.885  0.00  0.00    -0.455 OA
BRANCH  18  19
ATOM     19  C   UNL     1       1.557  -0.001  -0.473  0.00  0.00    +0.131 A 
ATOM     20  C   UNL     1       2.548   0.179  -1.446  0.00  0.00    -0.001 A 
ATOM     21  C   UNL     1       3.890   0.310  -1.074  0.00  0.00    +0.046 A 
ATOM     22  C   UNL     1       4.248   0.274   0.278  0.00  0.00    -0.025 A 
ATOM     23  C   UNL     1       3.263   0.114   1.258  0.00  0.00    +0.046 A 
ATOM     24  C   UNL     1       1.921  -0.017   0.887  0.00  0.00    -0.001 A 
ATOM     25 CL   UNL     1       3.710   0.089   2.954  0.00  0.00    -0.083 Cl
ATOM     26 CL   UNL     1       5.124   0.522  -2.302  0.00  0.00    -0.083 Cl
ATOM     27  H   UNL     1       2.272   0.210  -2.492  0.00  0.00    +0.067 HD
ATOM     28  H   UNL     1       5.287   0.376   0.566  0.00  0.00    +0.065 HD
ATOM     29  H   UNL     1       1.165  -0.111   1.655  0.00  0.00    +0.067 HD
ENDBRANCH  18  19
ENDBRANCH   3  18
TORSDOF 4
