REMARK  Name = 
REMARK  4 active torsions:
REMARK  status: ('A' for Active; 'I' for Inactive)
REMARK    1  A    between atoms: C_3  and  O_13
REMARK    2  A    between atoms: C_4  and  C_8
REMARK    3  A    between atoms: C_9  and  C_10
REMARK    4  A    between atoms: O_13  and  C_14
REMARK                            x       y       z     vdW  Elec       q    Type
REMARK                         _______ _______ _______ _____ _____    ______ ____
ROOT
ATOM      1  C   UNL     1       0.943  -3.019   1.037  0.00  0.00    -0.023 A 
ATOM      2  C   UNL     1       0.066  -2.065   0.518  0.00  0.00    -0.016 A 
ATOM      3  C   UNL     1       0.558  -0.962  -0.204  0.00  0.00    +0.136 A 
ATOM      4  C   UNL     1       1.952  -0.827  -0.402  0.00  0.00    +0.020 A 
ATOM      5  C   UNL     1       2.817  -1.810   0.103  0.00  0.00    -0.016 A 
ATOM      6  C   UNL     1       2.316  -2.895   0.827  0.00  0.00    +0.124 A 
ATOM      7  F   UNL     1       3.164  -3.830   1.320  0.00  0.00    -0.205 F 
ATOM      8  H   UNL     1       0.554  -3.865   1.589  0.00  0.00    +0.065 HD
ATOM      9  H   UNL     1      -0.998  -2.204   0.652  0.00  0.00    +0.066 HD
ATOM     10  H   UNL     1       3.887  -1.729  -0.052  0.00  0.00    +0.065 HD
ENDROOT
BRANCH   4  11
ATOM     11  C   UNL     1       2.541   0.304  -1.156  0.00  0.00    -0.044 C 
ATOM     12  C   UNL     1       2.108   1.564  -1.028  0.00  0.00    +0.027 C 
ATOM     13  H   UNL     1       3.410   0.098  -1.770  0.00  0.00    +0.063 HD
ATOM     14  H   UNL     1       1.300   1.796  -0.346  0.00  0.00    +0.069 HD
BRANCH  12  15
ATOM     15  C   UNL     1       2.727   2.679  -1.762  0.00  0.00    +0.380 C 
ATOM     16  O   UNL     1       2.300   3.850  -1.588  0.00  0.00    -0.241 OA
ATOM     17  O   UNL     1       3.776   2.459  -2.648  0.00  0.00    -0.241 OA
ENDBRANCH  12  15
ENDBRANCH   4  11
BRANCH   3  18
ATOM     18  O   UNL     1      -0.325  -0.043  -0.794  0.00  0.00    -0.455 OA
BRANCH  18  19
ATOM     19  C   UNL     1      -1.539   0.389  -0.240  0.00  0.00    +0.131 A 
ATOM     20  C   UNL     1      -2.554   0.822  -1.102  0.00  0.00    -0.001 A 
ATOM     21  C   UNL     1      -3.774   1.274  -0.588  0.00  0.00    +0.046 A 
ATOM     22  C   UNL     1      -3.981   1.307   0.795  0.00  0.00    -0.025 A 
ATOM     23  C   UNL     1      -2.966   0.895   1.664  0.00  0.00    +0.046 A 
ATOM     24  C   UNL     1      -1.745   0.443   1.151  0.00  0.00    -0.001 A 
ATOM     25 CL   UNL     1      -3.219   0.956   3.399  0.00  0.00    -0.083 Cl
ATOM     26 CL   UNL     1      -5.043   1.802  -1.678  0.00  0.00    -0.083 Cl
ATOM     27  H   UNL     1      -2.394   0.799  -2.173  0.00  0.00    +0.067 HD
ATOM     28  H   UNL     1      -4.925   1.659   1.192  0.00  0.00    +0.065 HD
ATOM     29  H   UNL     1      -0.957   0.154   1.834  0.00  0.00    +0.067 HD
ENDBRANCH  18  19
ENDBRANCH   3  18
TORSDOF 4
