REMARK  Name = 
REMARK  4 active torsions:
REMARK  status: ('A' for Active; 'I' for Inactive)
REMARK    1  A    between atoms: C_3  and  O_13
REMARK    2  A    between atoms: C_4  and  C_8
REMARK    3  A    between atoms: C_9  and  C_10
REMARK    4  A    between atoms: O_13  and  C_14
REMARK                            x       y       z     vdW  Elec       q    Type
REMARK                         _______ _______ _______ _____ _____    ______ ____
ROOT
ATOM      1  C   UNL     1       0.122   2.343  -2.050  0.00  0.00    -0.023 A 
ATOM      2  C   UNL     1      -0.476   1.621  -1.016  0.00  0.00    -0.016 A 
ATOM      3  C   UNL     1       0.281   0.718  -0.246  0.00  0.00    +0.136 A 
ATOM      4  C   UNL     1       1.662   0.573  -0.498  0.00  0.00    +0.020 A 
ATOM      5  C   UNL     1       2.247   1.299  -1.556  0.00  0.00    -0.016 A 
ATOM      6  C   UNL     1       1.479   2.178  -2.324  0.00  0.00    +0.124 A 
ATOM      7  F   UNL     1       2.054   2.870  -3.338  0.00  0.00    -0.205 F 
ATOM      8  H   UNL     1      -0.470   3.033  -2.639  0.00  0.00    +0.065 HD
ATOM      9  H   UNL     1      -1.525   1.780  -0.805  0.00  0.00    +0.066 HD
ATOM     10  H   UNL     1       3.291   1.174  -1.810  0.00  0.00    +0.065 HD
ENDROOT
BRANCH   4  11
ATOM     11  C   UNL     1       2.458  -0.379   0.320  0.00  0.00    -0.044 C 
ATOM     12  C   UNL     1       3.776  -0.249   0.526  0.00  0.00    +0.027 C 
ATOM     13  H   UNL     1       1.930  -1.192   0.804  0.00  0.00    +0.063 HD
ATOM     14  H   UNL     1       4.318   0.587   0.106  0.00  0.00    +0.069 HD
BRANCH  12  15
ATOM     15  C   UNL     1       4.540  -1.200   1.350  0.00  0.00    +0.380 C 
ATOM     16  O   UNL     1       3.983  -2.197   1.882  0.00  0.00    -0.241 OA
ATOM     17  O   UNL     1       5.900  -0.995   1.544  0.00  0.00    -0.241 OA
ENDBRANCH  12  15
ENDBRANCH   4  11
BRANCH   3  18
ATOM     18  O   UNL     1      -0.308   0.002   0.809  0.00  0.00    -0.455 OA
BRANCH  18  19
ATOM     19  C   UNL     1      -1.626  -0.477   0.832  0.00  0.00    +0.131 A 
ATOM     20  C   UNL     1      -2.265  -0.626   2.069  0.00  0.00    -0.001 A 
ATOM     21  C   UNL     1      -3.575  -1.114   2.135  0.00  0.00    +0.046 A 
ATOM     22  C   UNL     1      -4.248  -1.469   0.962  0.00  0.00    -0.025 A 
ATOM     23  C   UNL     1      -3.611  -1.343  -0.277  0.00  0.00    +0.046 A 
ATOM     24  C   UNL     1      -2.301  -0.855  -0.343  0.00  0.00    -0.001 A 
ATOM     25 CL   UNL     1      -4.449  -1.808  -1.746  0.00  0.00    -0.083 Cl
ATOM     26 CL   UNL     1      -4.371  -1.284   3.689  0.00  0.00    -0.083 Cl
ATOM     27  H   UNL     1      -1.745  -0.353   2.978  0.00  0.00    +0.067 HD
ATOM     28  H   UNL     1      -5.261  -1.848   1.012  0.00  0.00    +0.065 HD
ATOM     29  H   UNL     1      -1.808  -0.789  -1.304  0.00  0.00    +0.067 HD
ENDBRANCH  18  19
ENDBRANCH   3  18
TORSDOF 4
