REMARK  Name = 
REMARK  4 active torsions:
REMARK  status: ('A' for Active; 'I' for Inactive)
REMARK    1  A    between atoms: C_3  and  O_13
REMARK    2  A    between atoms: C_4  and  C_8
REMARK    3  A    between atoms: C_9  and  C_10
REMARK    4  A    between atoms: O_13  and  C_14
REMARK                            x       y       z     vdW  Elec       q    Type
REMARK                         _______ _______ _______ _____ _____    ______ ____
ROOT
ATOM      1  C   UNL     1       0.735  -2.457   1.812  0.00  0.00    -0.023 A 
ATOM      2  C   UNL     1      -0.092  -1.756   0.933  0.00  0.00    -0.016 A 
ATOM      3  C   UNL     1       0.417  -0.686   0.174  0.00  0.00    +0.136 A 
ATOM      4  C   UNL     1       1.784  -0.346   0.276  0.00  0.00    +0.020 A 
ATOM      5  C   UNL     1       2.601  -1.055   1.180  0.00  0.00    -0.016 A 
ATOM      6  C   UNL     1       2.077  -2.103   1.940  0.00  0.00    +0.124 A 
ATOM      7  F   UNL     1       2.874  -2.777   2.806  0.00  0.00    -0.205 F 
ATOM      8  H   UNL     1       0.332  -3.277   2.393  0.00  0.00    +0.065 HD
ATOM      9  H   UNL     1      -1.125  -2.061   0.831  0.00  0.00    +0.066 HD
ATOM     10  H   UNL     1       3.640  -0.788   1.322  0.00  0.00    +0.065 HD
ENDROOT
BRANCH   4  11
ATOM     11  C   UNL     1       2.318   0.782  -0.529  0.00  0.00    -0.044 C 
ATOM     12  C   UNL     1       3.602   0.880  -0.900  0.00  0.00    +0.027 C 
ATOM     13  H   UNL     1       1.618   1.539  -0.864  0.00  0.00    +0.063 HD
ATOM     14  H   UNL     1       4.311   0.107  -0.633  0.00  0.00    +0.069 HD
BRANCH  12  15
ATOM     15  C   UNL     1       4.105   2.003  -1.708  0.00  0.00    +0.380 C 
ATOM     16  O   UNL     1       3.344   2.940  -2.068  0.00  0.00    -0.241 OA
ATOM     17  O   UNL     1       5.443   2.031  -2.079  0.00  0.00    -0.241 OA
ENDBRANCH  12  15
ENDBRANCH   4  11
BRANCH   3  18
ATOM     18  O   UNL     1      -0.403   0.012  -0.728  0.00  0.00    -0.455 OA
BRANCH  18  19
ATOM     19  C   UNL     1      -1.768   0.279  -0.548  0.00  0.00    +0.131 A 
ATOM     20  C   UNL     1      -2.579   0.425  -1.680  0.00  0.00    -0.001 A 
ATOM     21  C   UNL     1      -3.943   0.705  -1.543  0.00  0.00    +0.046 A 
ATOM     22  C   UNL     1      -4.502   0.853  -0.269  0.00  0.00    -0.025 A 
ATOM     23  C   UNL     1      -3.696   0.728   0.867  0.00  0.00    +0.046 A 
ATOM     24  C   UNL     1      -2.332   0.448   0.731  0.00  0.00    -0.001 A 
ATOM     25 CL   UNL     1      -4.393   0.933   2.464  0.00  0.00    -0.083 Cl
ATOM     26 CL   UNL     1      -4.952   0.873  -2.968  0.00  0.00    -0.083 Cl
ATOM     27  H   UNL     1      -2.147   0.313  -2.667  0.00  0.00    +0.067 HD
ATOM     28  H   UNL     1      -5.557   1.071  -0.163  0.00  0.00    +0.065 HD
ATOM     29  H   UNL     1      -1.713   0.383   1.616  0.00  0.00    +0.067 HD
ENDBRANCH  18  19
ENDBRANCH   3  18
TORSDOF 4
