REMARK  Name = 
REMARK  3 active torsions:
REMARK  status: ('A' for Active; 'I' for Inactive)
REMARK    1  A    between atoms: C_4  and  C_7
REMARK    2  A    between atoms: C_8  and  C_13
REMARK    3  A    between atoms: C_11  and  N_12
REMARK                            x       y       z     vdW  Elec       q    Type
REMARK                         _______ _______ _______ _____ _____    ______ ____
ROOT
ATOM      1  C   UNL     1      -1.465   0.367  -0.088  0.00  0.00    +0.071 A 
ATOM      2  C   UNL     1      -1.294  -0.657  -1.014  0.00  0.00    +0.123 A 
ATOM      3  N   UNL     1      -2.478  -0.917  -1.608  0.00  0.00    -0.075 NA
ATOM      4  O   UNL     1      -3.359  -0.108  -1.094  0.00  0.00    -0.339 OA
ATOM      5  C   UNL     1      -2.808   0.671  -0.196  0.00  0.00    +0.224 A 
ENDROOT
BRANCH   1   9
ATOM      6  C   UNL     1       1.504   2.344   2.283  0.00  0.00    -0.062 A 
ATOM      7  C   UNL     1       0.318   1.902   2.875  0.00  0.00    -0.061 A 
ATOM      8  C   UNL     1      -0.655   1.260   2.102  0.00  0.00    -0.054 A 
ATOM      9  C   UNL     1      -0.446   1.058   0.728  0.00  0.00    -0.011 A 
ATOM     10  C   UNL     1       0.749   1.506   0.140  0.00  0.00    -0.054 A 
ATOM     11  C   UNL     1       1.719   2.146   0.917  0.00  0.00    -0.061 A 
ATOM     12  H   UNL     1       2.256   2.839   2.884  0.00  0.00    +0.062 HD
ATOM     13  H   UNL     1       0.153   2.052   3.934  0.00  0.00    +0.062 HD
ATOM     14  H   UNL     1      -1.562   0.908   2.577  0.00  0.00    +0.062 HD
ATOM     15  H   UNL     1       0.927   1.364  -0.919  0.00  0.00    +0.062 HD
ATOM     16  H   UNL     1       2.638   2.489   0.459  0.00  0.00    +0.062 HD
ENDBRANCH   1   9
BRANCH   2  17
ATOM     17  C   UNL     1      -0.056  -1.407  -1.322  0.00  0.00    +0.008 A 
ATOM     18  C   UNL     1       0.170  -1.871  -2.628  0.00  0.00    -0.017 A 
ATOM     19  C   UNL     1       1.333  -2.585  -2.934  0.00  0.00    +0.125 A 
ATOM     20  C   UNL     1       2.274  -2.851  -1.936  0.00  0.00    -0.012 A 
ATOM     21  C   UNL     1       2.050  -2.411  -0.628  0.00  0.00    +0.021 A 
ATOM     22  C   UNL     1       0.886  -1.700  -0.319  0.00  0.00    -0.038 A 
ATOM     23 BR   UNL     1       3.328  -2.789   0.739  0.00  0.00    -0.050 Br
ATOM     24  F   UNL     1       1.548  -3.018  -4.201  0.00  0.00    -0.205 F 
ATOM     25  H   UNL     1      -0.547  -1.668  -3.414  0.00  0.00    +0.065 HD
ATOM     26  H   UNL     1       3.174  -3.402  -2.178  0.00  0.00    +0.066 HD
ATOM     27  H   UNL     1       0.713  -1.396   0.705  0.00  0.00    +0.064 HD
ENDBRANCH   2  17
BRANCH   5  28
ATOM     28  N   UNL     1      -3.513   1.696   0.504  0.00  0.00    -0.327 N 
ATOM     29  H   UNL     1      -4.537   1.825   0.343  0.00  0.00    +0.145 HD
ATOM     30  H   UNL     1      -3.018   2.353   1.145  0.00  0.00    +0.145 HD
ENDBRANCH   5  28
TORSDOF 3
