REMARK  Name = 
REMARK  3 active torsions:
REMARK  status: ('A' for Active; 'I' for Inactive)
REMARK    1  A    between atoms: C_4  and  C_7
REMARK    2  A    between atoms: C_8  and  C_13
REMARK    3  A    between atoms: C_11  and  N_12
REMARK                            x       y       z     vdW  Elec       q    Type
REMARK                         _______ _______ _______ _____ _____    ______ ____
ROOT
ATOM      1  C   UNL     1      -0.505  -0.994   0.928  0.00  0.00    +0.071 A 
ATOM      2  C   UNL     1       0.829  -1.306   0.685  0.00  0.00    +0.123 A 
ATOM      3  N   UNL     1       1.167  -2.394   1.410  0.00  0.00    -0.075 NA
ATOM      4  O   UNL     1       0.113  -2.759   2.081  0.00  0.00    -0.339 OA
ATOM      5  C   UNL     1      -0.899  -1.967   1.827  0.00  0.00    +0.224 A 
ENDROOT
BRANCH   1   9
ATOM      6  C   UNL     1      -2.916   2.031  -0.910  0.00  0.00    -0.062 A 
ATOM      7  C   UNL     1      -2.921   1.883   0.480  0.00  0.00    -0.061 A 
ATOM      8  C   UNL     1      -2.138   0.892   1.082  0.00  0.00    -0.054 A 
ATOM      9  C   UNL     1      -1.344   0.043   0.294  0.00  0.00    -0.011 A 
ATOM     10  C   UNL     1      -1.346   0.198  -1.102  0.00  0.00    -0.054 A 
ATOM     11  C   UNL     1      -2.129   1.190  -1.700  0.00  0.00    -0.061 A 
ATOM     12  H   UNL     1      -3.521   2.799  -1.374  0.00  0.00    +0.062 HD
ATOM     13  H   UNL     1      -3.528   2.538   1.091  0.00  0.00    +0.062 HD
ATOM     14  H   UNL     1      -2.138   0.800   2.161  0.00  0.00    +0.062 HD
ATOM     15  H   UNL     1      -0.745  -0.451  -1.727  0.00  0.00    +0.062 HD
ATOM     16  H   UNL     1      -2.126   1.305  -2.776  0.00  0.00    +0.062 HD
ENDBRANCH   1   9
BRANCH   2  17
ATOM     17  C   UNL     1       1.786  -0.588  -0.184  0.00  0.00    +0.008 A 
ATOM     18  C   UNL     1       2.788  -1.306  -0.859  0.00  0.00    -0.017 A 
ATOM     19  C   UNL     1       3.703  -0.640  -1.681  0.00  0.00    +0.125 A 
ATOM     20  C   UNL     1       3.633   0.748  -1.827  0.00  0.00    -0.012 A 
ATOM     21  C   UNL     1       2.654   1.474  -1.143  0.00  0.00    +0.021 A 
ATOM     22  C   UNL     1       1.739   0.812  -0.318  0.00  0.00    -0.038 A 
ATOM     23 BR   UNL     1       2.569   3.373  -1.329  0.00  0.00    -0.050 Br
ATOM     24  F   UNL     1       4.658  -1.343  -2.339  0.00  0.00    -0.205 F 
ATOM     25  H   UNL     1       2.852  -2.382  -0.761  0.00  0.00    +0.065 HD
ATOM     26  H   UNL     1       4.343   1.259  -2.465  0.00  0.00    +0.066 HD
ATOM     27  H   UNL     1       1.008   1.393   0.228  0.00  0.00    +0.064 HD
ENDBRANCH   2  17
BRANCH   5  28
ATOM     28  N   UNL     1      -2.204  -2.146   2.377  0.00  0.00    -0.327 N 
ATOM     29  H   UNL     1      -2.378  -2.917   3.058  0.00  0.00    +0.145 HD
ATOM     30  H   UNL     1      -3.005  -1.546   2.080  0.00  0.00    +0.145 HD
ENDBRANCH   5  28
TORSDOF 3
