REMARK  Name = 
REMARK  3 active torsions:
REMARK  status: ('A' for Active; 'I' for Inactive)
REMARK    1  A    between atoms: C_4  and  C_7
REMARK    2  A    between atoms: C_8  and  C_13
REMARK    3  A    between atoms: C_11  and  N_12
REMARK                            x       y       z     vdW  Elec       q    Type
REMARK                         _______ _______ _______ _____ _____    ______ ____
ROOT
ATOM      1  C   UNL     1       0.421  -0.639   1.290  0.00  0.00    +0.071 A 
ATOM      2  C   UNL     1      -0.908  -0.249   1.421  0.00  0.00    +0.123 A 
ATOM      3  N   UNL     1      -1.330  -0.531   2.672  0.00  0.00    -0.075 NA
ATOM      4  O   UNL     1      -0.331  -1.070   3.309  0.00  0.00    -0.339 OA
ATOM      5  C   UNL     1       0.725  -1.151   2.537  0.00  0.00    +0.224 A 
ENDROOT
BRANCH   1   9
ATOM      6  C   UNL     1       3.058  -0.074  -2.037  0.00  0.00    -0.062 A 
ATOM      7  C   UNL     1       2.978  -1.321  -1.413  0.00  0.00    -0.061 A 
ATOM      8  C   UNL     1       2.121  -1.507  -0.324  0.00  0.00    -0.054 A 
ATOM      9  C   UNL     1       1.336  -0.443   0.148  0.00  0.00    -0.011 A 
ATOM     10  C   UNL     1       1.422   0.809  -0.485  0.00  0.00    -0.054 A 
ATOM     11  C   UNL     1       2.280   0.991  -1.574  0.00  0.00    -0.061 A 
ATOM     12  H   UNL     1       3.722   0.068  -2.880  0.00  0.00    +0.062 HD
ATOM     13  H   UNL     1       3.579  -2.146  -1.775  0.00  0.00    +0.062 HD
ATOM     14  H   UNL     1       2.057  -2.484   0.139  0.00  0.00    +0.062 HD
ATOM     15  H   UNL     1       0.829   1.645  -0.133  0.00  0.00    +0.062 HD
ATOM     16  H   UNL     1       2.343   1.957  -2.058  0.00  0.00    +0.062 HD
ENDBRANCH   1   9
BRANCH   2  17
ATOM     17  C   UNL     1      -1.786   0.347   0.390  0.00  0.00    +0.008 A 
ATOM     18  C   UNL     1      -1.681  -0.029  -0.962  0.00  0.00    -0.017 A 
ATOM     19  C   UNL     1      -2.525   0.539  -1.921  0.00  0.00    +0.125 A 
ATOM     20  C   UNL     1      -3.490   1.475  -1.538  0.00  0.00    -0.012 A 
ATOM     21  C   UNL     1      -3.617   1.840  -0.195  0.00  0.00    +0.021 A 
ATOM     22  C   UNL     1      -2.773   1.273   0.767  0.00  0.00    -0.038 A 
ATOM     23 BR   UNL     1      -4.942   3.111   0.328  0.00  0.00    -0.050 Br
ATOM     24  F   UNL     1      -2.414   0.175  -3.222  0.00  0.00    -0.205 F 
ATOM     25  H   UNL     1      -0.962  -0.774  -1.275  0.00  0.00    +0.065 HD
ATOM     26  H   UNL     1      -4.142   1.912  -2.284  0.00  0.00    +0.066 HD
ATOM     27  H   UNL     1      -2.878   1.567   1.804  0.00  0.00    +0.064 HD
ENDBRANCH   2  17
BRANCH   5  28
ATOM     28  N   UNL     1       1.989  -1.652   2.972  0.00  0.00    -0.327 N 
ATOM     29  H   UNL     1       2.828  -1.616   2.354  0.00  0.00    +0.145 HD
ATOM     30  H   UNL     1       2.093  -2.023   3.942  0.00  0.00    +0.145 HD
ENDBRANCH   5  28
TORSDOF 3
