REMARK  Name = 
REMARK  3 active torsions:
REMARK  status: ('A' for Active; 'I' for Inactive)
REMARK    1  A    between atoms: C_4  and  C_7
REMARK    2  A    between atoms: C_8  and  C_13
REMARK    3  A    between atoms: C_11  and  N_12
REMARK                            x       y       z     vdW  Elec       q    Type
REMARK                         _______ _______ _______ _____ _____    ______ ____
ROOT
ATOM      1  C   UNL     1      -0.386   1.435  -0.268  0.00  0.00    +0.071 A 
ATOM      2  C   UNL     1       0.988   1.342  -0.465  0.00  0.00    +0.123 A 
ATOM      3  N   UNL     1       1.460   2.545  -0.856  0.00  0.00    -0.075 NA
ATOM      4  O   UNL     1       0.449   3.364  -0.907  0.00  0.00    -0.339 OA
ATOM      5  C   UNL     1      -0.662   2.755  -0.573  0.00  0.00    +0.224 A 
ENDROOT
BRANCH   1   9
ATOM      6  C   UNL     1      -3.158  -1.679   0.713  0.00  0.00    -0.062 A 
ATOM      7  C   UNL     1      -3.193  -0.467   1.409  0.00  0.00    -0.061 A 
ATOM      8  C   UNL     1      -2.292   0.552   1.087  0.00  0.00    -0.054 A 
ATOM      9  C   UNL     1      -1.349   0.366   0.064  0.00  0.00    -0.011 A 
ATOM     10  C   UNL     1      -1.321  -0.855  -0.632  0.00  0.00    -0.054 A 
ATOM     11  C   UNL     1      -2.222  -1.872  -0.307  0.00  0.00    -0.061 A 
ATOM     12  H   UNL     1      -3.855  -2.468   0.964  0.00  0.00    +0.062 HD
ATOM     13  H   UNL     1      -3.916  -0.320   2.201  0.00  0.00    +0.062 HD
ATOM     14  H   UNL     1      -2.319   1.479   1.647  0.00  0.00    +0.062 HD
ATOM     15  H   UNL     1      -0.604  -1.016  -1.428  0.00  0.00    +0.062 HD
ATOM     16  H   UNL     1      -2.196  -2.811  -0.845  0.00  0.00    +0.062 HD
ENDBRANCH   1   9
BRANCH   2  17
ATOM     17  C   UNL     1       1.857   0.162  -0.263  0.00  0.00    +0.008 A 
ATOM     18  C   UNL     1       2.982  -0.023  -1.085  0.00  0.00    -0.017 A 
ATOM     19  C   UNL     1       3.815  -1.131  -0.904  0.00  0.00    +0.125 A 
ATOM     20  C   UNL     1       3.541  -2.057   0.106  0.00  0.00    -0.012 A 
ATOM     21  C   UNL     1       2.436  -1.871   0.943  0.00  0.00    +0.021 A 
ATOM     22  C   UNL     1       1.602  -0.762   0.766  0.00  0.00    -0.038 A 
ATOM     23 BR   UNL     1       2.070  -3.127   2.335  0.00  0.00    -0.050 Br
ATOM     24  F   UNL     1       4.891  -1.308  -1.710  0.00  0.00    -0.205 F 
ATOM     25  H   UNL     1       3.205   0.682  -1.876  0.00  0.00    +0.065 HD
ATOM     26  H   UNL     1       4.188  -2.914   0.242  0.00  0.00    +0.066 HD
ATOM     27  H   UNL     1       0.771  -0.617   1.444  0.00  0.00    +0.064 HD
ENDBRANCH   2  17
BRANCH   5  28
ATOM     28  N   UNL     1      -1.944   3.381  -0.582  0.00  0.00    -0.327 N 
ATOM     29  H   UNL     1      -2.814   2.838  -0.396  0.00  0.00    +0.145 HD
ATOM     30  H   UNL     1      -2.024   4.394  -0.823  0.00  0.00    +0.145 HD
ENDBRANCH   5  28
TORSDOF 3
