REMARK  Name = 
REMARK  3 active torsions:
REMARK  status: ('A' for Active; 'I' for Inactive)
REMARK    1  A    between atoms: C_4  and  C_7
REMARK    2  A    between atoms: C_8  and  C_13
REMARK    3  A    between atoms: C_11  and  N_12
REMARK                            x       y       z     vdW  Elec       q    Type
REMARK                         _______ _______ _______ _____ _____    ______ ____
ROOT
ATOM      1  C   UNL     1      -0.662  -1.244  -0.514  0.00  0.00    +0.071 A 
ATOM      2  C   UNL     1       0.702  -1.353  -0.762  0.00  0.00    +0.123 A 
ATOM      3  N   UNL     1       0.940  -2.507  -1.423  0.00  0.00    -0.075 NA
ATOM      4  O   UNL     1      -0.205  -3.103  -1.590  0.00  0.00    -0.339 OA
ATOM      5  C   UNL     1      -1.180  -2.396  -1.074  0.00  0.00    +0.224 A 
ENDROOT
BRANCH   1   9
ATOM      6  C   UNL     1      -2.807   2.023   1.240  0.00  0.00    -0.062 A 
ATOM      7  C   UNL     1      -3.052   0.715   1.669  0.00  0.00    -0.061 A 
ATOM      8  C   UNL     1      -2.356  -0.353   1.095  0.00  0.00    -0.054 A 
ATOM      9  C   UNL     1      -1.407  -0.118   0.086  0.00  0.00    -0.011 A 
ATOM     10  C   UNL     1      -1.166   1.198  -0.340  0.00  0.00    -0.054 A 
ATOM     11  C   UNL     1      -1.864   2.264   0.237  0.00  0.00    -0.061 A 
ATOM     12  H   UNL     1      -3.346   2.849   1.686  0.00  0.00    +0.062 HD
ATOM     13  H   UNL     1      -3.780   0.530   2.448  0.00  0.00    +0.062 HD
ATOM     14  H   UNL     1      -2.545  -1.359   1.448  0.00  0.00    +0.062 HD
ATOM     15  H   UNL     1      -0.443   1.400  -1.120  0.00  0.00    +0.062 HD
ATOM     16  H   UNL     1      -1.675   3.277  -0.094  0.00  0.00    +0.062 HD
ENDBRANCH   1   9
BRANCH   2  17
ATOM     17  C   UNL     1       1.776  -0.417  -0.364  0.00  0.00    +0.008 A 
ATOM     18  C   UNL     1       1.716   0.286   0.852  0.00  0.00    -0.017 A 
ATOM     19  C   UNL     1       2.745   1.160   1.215  0.00  0.00    +0.125 A 
ATOM     20  C   UNL     1       3.849   1.330   0.375  0.00  0.00    -0.012 A 
ATOM     21  C   UNL     1       3.929   0.619  -0.826  0.00  0.00    +0.021 A 
ATOM     22  C   UNL     1       2.900  -0.256  -1.192  0.00  0.00    -0.038 A 
ATOM     23 BR   UNL     1       5.443   0.844  -1.968  0.00  0.00    -0.050 Br
ATOM     24  F   UNL     1       2.676   1.838   2.387  0.00  0.00    -0.205 F 
ATOM     25  H   UNL     1       0.885   0.146   1.532  0.00  0.00    +0.065 HD
ATOM     26  H   UNL     1       4.644   2.006   0.661  0.00  0.00    +0.066 HD
ATOM     27  H   UNL     1       2.972  -0.798  -2.127  0.00  0.00    +0.064 HD
ENDBRANCH   2  17
BRANCH   5  28
ATOM     28  N   UNL     1      -2.556  -2.770  -1.146  0.00  0.00    -0.327 N 
ATOM     29  H   UNL     1      -2.824  -3.676  -1.590  0.00  0.00    +0.145 HD
ATOM     30  H   UNL     1      -3.309  -2.135  -0.803  0.00  0.00    +0.145 HD
ENDBRANCH   5  28
TORSDOF 3
