REMARK  Name = 
REMARK  3 active torsions:
REMARK  status: ('A' for Active; 'I' for Inactive)
REMARK    1  A    between atoms: C_4  and  C_7
REMARK    2  A    between atoms: C_8  and  C_13
REMARK    3  A    between atoms: C_11  and  N_12
REMARK                            x       y       z     vdW  Elec       q    Type
REMARK                         _______ _______ _______ _____ _____    ______ ____
ROOT
ATOM      1  C   UNL     1      -0.461  -1.313   0.588  0.00  0.00    +0.071 A 
ATOM      2  C   UNL     1       0.930  -1.325   0.610  0.00  0.00    +0.123 A 
ATOM      3  N   UNL     1       1.353  -2.476   1.177  0.00  0.00    -0.075 NA
ATOM      4  O   UNL     1       0.295  -3.162   1.501  0.00  0.00    -0.339 OA
ATOM      5  C   UNL     1      -0.798  -2.516   1.177  0.00  0.00    +0.224 A 
ENDROOT
BRANCH   1   9
ATOM      6  C   UNL     1      -3.081   1.830  -0.677  0.00  0.00    -0.062 A 
ATOM      7  C   UNL     1      -3.301   0.520  -1.111  0.00  0.00    -0.061 A 
ATOM      8  C   UNL     1      -2.450  -0.508  -0.695  0.00  0.00    -0.054 A 
ATOM      9  C   UNL     1      -1.371  -0.231   0.160  0.00  0.00    -0.011 A 
ATOM     10  C   UNL     1      -1.157   1.089   0.593  0.00  0.00    -0.054 A 
ATOM     11  C   UNL     1      -2.009   2.114   0.174  0.00  0.00    -0.061 A 
ATOM     12  H   UNL     1      -3.740   2.625  -1.001  0.00  0.00    +0.062 HD
ATOM     13  H   UNL     1      -4.129   0.302  -1.773  0.00  0.00    +0.062 HD
ATOM     14  H   UNL     1      -2.622  -1.516  -1.053  0.00  0.00    +0.062 HD
ATOM     15  H   UNL     1      -0.333   1.322   1.256  0.00  0.00    +0.062 HD
ATOM     16  H   UNL     1      -1.840   3.129   0.509  0.00  0.00    +0.062 HD
ENDBRANCH   1   9
BRANCH   2  17
ATOM     17  C   UNL     1       1.857  -0.300   0.082  0.00  0.00    +0.008 A 
ATOM     18  C   UNL     1       3.089  -0.080   0.722  0.00  0.00    -0.017 A 
ATOM     19  C   UNL     1       3.977   0.883   0.233  0.00  0.00    +0.125 A 
ATOM     20  C   UNL     1       3.649   1.627  -0.904  0.00  0.00    -0.012 A 
ATOM     21  C   UNL     1       2.435   1.402  -1.560  0.00  0.00    +0.021 A 
ATOM     22  C   UNL     1       1.546   0.437  -1.075  0.00  0.00    -0.038 A 
ATOM     23 BR   UNL     1       1.993   2.405  -3.123  0.00  0.00    -0.050 Br
ATOM     24  F   UNL     1       5.158   1.097   0.863  0.00  0.00    -0.205 F 
ATOM     25  H   UNL     1       3.356  -0.644   1.607  0.00  0.00    +0.065 HD
ATOM     26  H   UNL     1       4.339   2.372  -1.278  0.00  0.00    +0.066 HD
ATOM     27  H   UNL     1       0.625   0.254  -1.614  0.00  0.00    +0.064 HD
ENDBRANCH   2  17
BRANCH   5  28
ATOM     28  N   UNL     1      -2.114  -2.995   1.453  0.00  0.00    -0.327 N 
ATOM     29  H   UNL     1      -2.955  -2.410   1.260  0.00  0.00    +0.145 HD
ATOM     30  H   UNL     1      -2.242  -3.931   1.897  0.00  0.00    +0.145 HD
ENDBRANCH   5  28
TORSDOF 3
