REMARK  Name = 
REMARK  3 active torsions:
REMARK  status: ('A' for Active; 'I' for Inactive)
REMARK    1  A    between atoms: C_4  and  C_7
REMARK    2  A    between atoms: C_8  and  C_13
REMARK    3  A    between atoms: C_11  and  N_12
REMARK                            x       y       z     vdW  Elec       q    Type
REMARK                         _______ _______ _______ _____ _____    ______ ____
ROOT
ATOM      1  C   UNL     1      -0.548   1.298  -0.545  0.00  0.00    +0.071 A 
ATOM      2  C   UNL     1       0.827   1.319  -0.754  0.00  0.00    +0.123 A 
ATOM      3  N   UNL     1       1.158   2.462  -1.395  0.00  0.00    -0.075 NA
ATOM      4  O   UNL     1       0.060   3.134  -1.585  0.00  0.00    -0.339 OA
ATOM      5  C   UNL     1      -0.973   2.487  -1.105  0.00  0.00    +0.224 A 
ENDROOT
BRANCH   1   9
ATOM      6  C   UNL     1      -2.944  -1.837   1.121  0.00  0.00    -0.062 A 
ATOM      7  C   UNL     1      -3.116  -0.520   1.556  0.00  0.00    -0.061 A 
ATOM      8  C   UNL     1      -2.338   0.505   1.010  0.00  0.00    -0.054 A 
ATOM      9  C   UNL     1      -1.382   0.218   0.022  0.00  0.00    -0.011 A 
ATOM     10  C   UNL     1      -1.216  -1.108  -0.411  0.00  0.00    -0.054 A 
ATOM     11  C   UNL     1      -1.995  -2.131   0.139  0.00  0.00    -0.061 A 
ATOM     12  H   UNL     1      -3.546  -2.630   1.546  0.00  0.00    +0.062 HD
ATOM     13  H   UNL     1      -3.849  -0.295   2.320  0.00  0.00    +0.062 HD
ATOM     14  H   UNL     1      -2.470   1.519   1.369  0.00  0.00    +0.062 HD
ATOM     15  H   UNL     1      -0.487  -1.349  -1.175  0.00  0.00    +0.062 HD
ATOM     16  H   UNL     1      -1.863  -3.151  -0.198  0.00  0.00    +0.062 HD
ENDBRANCH   1   9
BRANCH   2  17
ATOM     17  C   UNL     1       1.826   0.311  -0.338  0.00  0.00    +0.008 A 
ATOM     18  C   UNL     1       2.962   0.086  -1.133  0.00  0.00    -0.017 A 
ATOM     19  C   UNL     1       3.917  -0.861  -0.751  0.00  0.00    +0.125 A 
ATOM     20  C   UNL     1       3.752  -1.584   0.433  0.00  0.00    -0.012 A 
ATOM     21  C   UNL     1       2.636  -1.354   1.242  0.00  0.00    +0.021 A 
ATOM     22  C   UNL     1       1.681  -0.405   0.864  0.00  0.00    -0.038 A 
ATOM     23 BR   UNL     1       2.418  -2.330   2.869  0.00  0.00    -0.050 Br
ATOM     24  F   UNL     1       5.004  -1.079  -1.532  0.00  0.00    -0.205 F 
ATOM     25  H   UNL     1       3.102   0.635  -2.057  0.00  0.00    +0.065 HD
ATOM     26  H   UNL     1       4.493  -2.317   0.724  0.00  0.00    +0.066 HD
ATOM     27  H   UNL     1       0.840  -0.218   1.519  0.00  0.00    +0.064 HD
ENDBRANCH   2  17
BRANCH   5  28
ATOM     28  N   UNL     1      -2.318   2.952  -1.210  0.00  0.00    -0.327 N 
ATOM     29  H   UNL     1      -3.121   2.365  -0.894  0.00  0.00    +0.145 HD
ATOM     30  H   UNL     1      -2.514   3.878  -1.649  0.00  0.00    +0.145 HD
ENDBRANCH   5  28
TORSDOF 3
