REMARK  Name = 
REMARK  3 active torsions:
REMARK  status: ('A' for Active; 'I' for Inactive)
REMARK    1  A    between atoms: C_4  and  C_7
REMARK    2  A    between atoms: C_8  and  C_13
REMARK    3  A    between atoms: C_11  and  N_12
REMARK                            x       y       z     vdW  Elec       q    Type
REMARK                         _______ _______ _______ _____ _____    ______ ____
ROOT
ATOM      1  C   UNL     1       0.423  -0.178   1.344  0.00  0.00    +0.071 A 
ATOM      2  C   UNL     1      -0.842  -0.745   1.220  0.00  0.00    +0.123 A 
ATOM      3  N   UNL     1      -1.206  -1.275   2.408  0.00  0.00    -0.075 NA
ATOM      4  O   UNL     1      -0.233  -1.060   3.246  0.00  0.00    -0.339 OA
ATOM      5  C   UNL     1       0.751  -0.420   2.664  0.00  0.00    +0.224 A 
ENDROOT
BRANCH   1   9
ATOM      6  C   UNL     1       2.864   1.589  -1.700  0.00  0.00    -0.062 A 
ATOM      7  C   UNL     1       2.249   0.354  -1.927  0.00  0.00    -0.061 A 
ATOM      8  C   UNL     1       1.457  -0.227  -0.932  0.00  0.00    -0.054 A 
ATOM      9  C   UNL     1       1.273   0.427   0.298  0.00  0.00    -0.011 A 
ATOM     10  C   UNL     1       1.894   1.667   0.518  0.00  0.00    -0.054 A 
ATOM     11  C   UNL     1       2.687   2.244  -0.479  0.00  0.00    -0.061 A 
ATOM     12  H   UNL     1       3.476   2.038  -2.471  0.00  0.00    +0.062 HD
ATOM     13  H   UNL     1       2.387  -0.153  -2.873  0.00  0.00    +0.062 HD
ATOM     14  H   UNL     1       0.991  -1.186  -1.119  0.00  0.00    +0.062 HD
ATOM     15  H   UNL     1       1.751   2.194   1.453  0.00  0.00    +0.062 HD
ATOM     16  H   UNL     1       3.160   3.202  -0.306  0.00  0.00    +0.062 HD
ENDBRANCH   1   9
BRANCH   2  17
ATOM     17  C   UNL     1      -1.715  -0.768   0.026  0.00  0.00    +0.008 A 
ATOM     18  C   UNL     1      -2.565  -1.865  -0.193  0.00  0.00    -0.017 A 
ATOM     19  C   UNL     1      -3.399  -1.900  -1.315  0.00  0.00    +0.125 A 
ATOM     20  C   UNL     1      -3.400  -0.836  -2.221  0.00  0.00    -0.012 A 
ATOM     21  C   UNL     1      -2.573   0.270  -2.001  0.00  0.00    +0.021 A 
ATOM     22  C   UNL     1      -1.740   0.309  -0.878  0.00  0.00    -0.038 A 
ATOM     23 BR   UNL     1      -2.586   1.732  -3.230  0.00  0.00    -0.050 Br
ATOM     24  F   UNL     1      -4.207  -2.968  -1.526  0.00  0.00    -0.205 F 
ATOM     25  H   UNL     1      -2.572  -2.700   0.496  0.00  0.00    +0.065 HD
ATOM     26  H   UNL     1      -4.046  -0.867  -3.089  0.00  0.00    +0.066 HD
ATOM     27  H   UNL     1      -1.131   1.186  -0.707  0.00  0.00    +0.064 HD
ENDBRANCH   2  17
BRANCH   5  28
ATOM     28  N   UNL     1       1.977  -0.088   3.316  0.00  0.00    -0.327 N 
ATOM     29  H   UNL     1       2.105  -0.316   4.326  0.00  0.00    +0.145 HD
ATOM     30  H   UNL     1       2.770   0.342   2.793  0.00  0.00    +0.145 HD
ENDBRANCH   5  28
TORSDOF 3
