REMARK  Name = 
REMARK  3 active torsions:
REMARK  status: ('A' for Active; 'I' for Inactive)
REMARK    1  A    between atoms: C_4  and  C_7
REMARK    2  A    between atoms: C_8  and  C_13
REMARK    3  A    between atoms: C_11  and  N_12
REMARK                            x       y       z     vdW  Elec       q    Type
REMARK                         _______ _______ _______ _____ _____    ______ ____
ROOT
ATOM      1  C   UNL     1      -0.407  -1.401  -0.428  0.00  0.00    +0.071 A 
ATOM      2  C   UNL     1       0.947  -1.447  -0.110  0.00  0.00    +0.123 A 
ATOM      3  N   UNL     1       1.386  -2.718  -0.227  0.00  0.00    -0.075 NA
ATOM      4  O   UNL     1       0.374  -3.447  -0.600  0.00  0.00    -0.339 OA
ATOM      5  C   UNL     1      -0.706  -2.717  -0.728  0.00  0.00    +0.224 A 
ENDROOT
BRANCH   1   9
ATOM      6  C   UNL     1      -3.090   1.930  -0.209  0.00  0.00    -0.062 A 
ATOM      7  C   UNL     1      -3.068   1.124  -1.351  0.00  0.00    -0.061 A 
ATOM      8  C   UNL     1      -2.196   0.033  -1.422  0.00  0.00    -0.054 A 
ATOM      9  C   UNL     1      -1.339  -0.259  -0.349  0.00  0.00    -0.011 A 
ATOM     10  C   UNL     1      -1.367   0.555   0.796  0.00  0.00    -0.054 A 
ATOM     11  C   UNL     1      -2.240   1.646   0.863  0.00  0.00    -0.061 A 
ATOM     12  H   UNL     1      -3.764   2.775  -0.156  0.00  0.00    +0.062 HD
ATOM     13  H   UNL     1      -3.724   1.347  -2.182  0.00  0.00    +0.062 HD
ATOM     14  H   UNL     1      -2.178  -0.572  -2.320  0.00  0.00    +0.062 HD
ATOM     15  H   UNL     1      -0.718   0.344   1.636  0.00  0.00    +0.062 HD
ATOM     16  H   UNL     1      -2.257   2.271   1.747  0.00  0.00    +0.062 HD
ENDBRANCH   1   9
BRANCH   2  17
ATOM     17  C   UNL     1       1.830  -0.321   0.268  0.00  0.00    +0.008 A 
ATOM     18  C   UNL     1       2.884  -0.536   1.172  0.00  0.00    -0.017 A 
ATOM     19  C   UNL     1       3.729   0.516   1.536  0.00  0.00    +0.125 A 
ATOM     20  C   UNL     1       3.538   1.789   0.992  0.00  0.00    -0.012 A 
ATOM     21  C   UNL     1       2.505   2.009   0.075  0.00  0.00    +0.021 A 
ATOM     22  C   UNL     1       1.659   0.958  -0.292  0.00  0.00    -0.038 A 
ATOM     23 BR   UNL     1       2.253   3.744  -0.681  0.00  0.00    -0.050 Br
ATOM     24  F   UNL     1       4.736   0.302   2.418  0.00  0.00    -0.205 F 
ATOM     25  H   UNL     1       3.042  -1.516   1.607  0.00  0.00    +0.065 HD
ATOM     26  H   UNL     1       4.194   2.601   1.277  0.00  0.00    +0.066 HD
ATOM     27  H   UNL     1       0.886   1.139  -1.027  0.00  0.00    +0.064 HD
ENDBRANCH   2  17
BRANCH   5  28
ATOM     28  N   UNL     1      -1.985  -3.245  -1.077  0.00  0.00    -0.327 N 
ATOM     29  H   UNL     1      -2.838  -2.644  -1.081  0.00  0.00    +0.145 HD
ATOM     30  H   UNL     1      -2.085  -4.262  -1.291  0.00  0.00    +0.145 HD
ENDBRANCH   5  28
TORSDOF 3
