REMARK  Name = 
REMARK  6 active torsions:
REMARK  status: ('A' for Active; 'I' for Inactive)
REMARK    1  A    between atoms: C_1  and  O_2
REMARK    2  A    between atoms: O_2  and  C_3
REMARK    3  A    between atoms: N_11  and  C_12
REMARK    4  A    between atoms: C_15  and  O_18
REMARK    5  A    between atoms: O_18  and  C_19
REMARK    6  A    between atoms: C_23  and  C_25
REMARK                            x       y       z     vdW  Elec       q    Type
REMARK                         _______ _______ _______ _____ _____    ______ ____
ROOT
ATOM      1  C   UNL     1      -2.065   1.643  -0.677  0.00  0.00    +0.163 A 
ATOM      2  C   UNL     1      -3.330   2.231  -0.873  0.00  0.00    -0.016 A 
ATOM      3  C   UNL     1      -4.493   1.464  -0.749  0.00  0.00    -0.058 A 
ATOM      4  C   UNL     1      -4.411   0.107  -0.429  0.00  0.00    -0.051 A 
ATOM      5  C   UNL     1      -3.158  -0.489  -0.231  0.00  0.00    +0.022 A 
ATOM      6  C   UNL     1      -1.986   0.280  -0.356  0.00  0.00    +0.179 A 
ATOM      7  O   UNL     1      -0.799  -0.284  -0.165  0.00  0.00    -0.435 OA
ATOM      8  C   UNL     1      -0.628  -1.569   0.151  0.00  0.00    +0.212 A 
ATOM      9  N   UNL     1       0.585  -2.019   0.362  0.00  0.00    -0.325 N 
ATOM     10  C   UNL     1      -1.769  -2.413   0.259  0.00  0.00    +0.097 A 
ATOM     11  C   UNL     1      -3.037  -1.843   0.080  0.00  0.00    -0.034 A 
ATOM     12  H   UNL     1      -3.426   3.280  -1.121  0.00  0.00    +0.066 HD
ATOM     13  H   UNL     1      -5.461   1.924  -0.901  0.00  0.00    +0.062 HD
ATOM     14  H   UNL     1      -5.321  -0.473  -0.338  0.00  0.00    +0.062 HD
ATOM     15  H   UNL     1       0.756  -3.024   0.581  0.00  0.00    +0.169 HD
ATOM     16  H   UNL     1      -3.926  -2.460   0.155  0.00  0.00    +0.063 HD
ENDROOT
BRANCH   9  17
ATOM     17  C   UNL     1       1.765  -1.199   0.270  0.00  0.00    +0.042 A 
ATOM     18  C   UNL     1       1.835   0.061   0.891  0.00  0.00    -0.035 A 
ATOM     19  C   UNL     1       3.001   0.828   0.806  0.00  0.00    -0.018 A 
ATOM     20  C   UNL     1       4.125   0.339   0.114  0.00  0.00    +0.130 A 
ATOM     21  C   UNL     1       4.061  -0.929  -0.477  0.00  0.00    -0.018 A 
ATOM     22  C   UNL     1       2.896  -1.696  -0.393  0.00  0.00    -0.035 A 
ATOM     23  H   UNL     1       0.996   0.444   1.458  0.00  0.00    +0.064 HD
ATOM     24  H   UNL     1       3.016   1.795   1.289  0.00  0.00    +0.065 HD
ATOM     25  H   UNL     1       4.921  -1.321  -1.005  0.00  0.00    +0.065 HD
ATOM     26  H   UNL     1       2.868  -2.674  -0.856  0.00  0.00    +0.064 HD
BRANCH  20  27
ATOM     27  O   UNL     1       5.319   1.067  -0.007  0.00  0.00    -0.406 OA
BRANCH  27  28
ATOM     28  C   UNL     1       5.548   2.368   0.530  0.00  0.00    +0.575 C 
ATOM     29  F   UNL     1       6.830   2.768   0.205  0.00  0.00    -0.133 F 
ATOM     30  F   UNL     1       5.425   2.344   1.908  0.00  0.00    -0.133 F 
ATOM     31  F   UNL     1       4.649   3.272  -0.008  0.00  0.00    -0.133 F 
ENDBRANCH  27  28
ENDBRANCH  20  27
ENDBRANCH   9  17
BRANCH  10  32
ATOM     32  C   UNL     1      -1.687  -3.869   0.519  0.00  0.00    +0.247 C 
ATOM     33  O   UNL     1      -0.907  -4.590  -0.159  0.00  0.00    -0.270 OA
ATOM     34  N   UNL     1      -2.528  -4.477   1.501  0.00  0.00    -0.325 N 
ATOM     35  H   UNL     1      -3.163  -3.899   2.095  0.00  0.00    +0.145 HD
ATOM     36  H   UNL     1      -2.494  -5.509   1.655  0.00  0.00    +0.145 HD
ENDBRANCH  10  32
BRANCH   1  37
ATOM     37  O   UNL     1      -0.872   2.375  -0.788  0.00  0.00    -0.491 OA
BRANCH  37  38
ATOM     38  C   UNL     1      -0.805   3.763  -1.099  0.00  0.00    +0.079 C 
ATOM     39  H   UNL     1      -1.251   3.952  -2.099  0.00  0.00    +0.066 HD
ATOM     40  H   UNL     1       0.258   4.078  -1.119  0.00  0.00    +0.066 HD
ATOM     41  H   UNL     1      -1.337   4.354  -0.324  0.00  0.00    +0.066 HD
ENDBRANCH  37  38
ENDBRANCH   1  37
TORSDOF 6
