REMARK  Name = 
REMARK  6 active torsions:
REMARK  status: ('A' for Active; 'I' for Inactive)
REMARK    1  A    between atoms: C_1  and  O_2
REMARK    2  A    between atoms: O_2  and  C_3
REMARK    3  A    between atoms: N_11  and  C_12
REMARK    4  A    between atoms: C_15  and  O_18
REMARK    5  A    between atoms: O_18  and  C_19
REMARK    6  A    between atoms: C_23  and  C_25
REMARK                            x       y       z     vdW  Elec       q    Type
REMARK                         _______ _______ _______ _____ _____    ______ ____
ROOT
ATOM      1  C   UNL     1      -2.444   1.545  -0.241  0.00  0.00    +0.163 A 
ATOM      2  C   UNL     1      -3.791   1.955  -0.287  0.00  0.00    -0.016 A 
ATOM      3  C   UNL     1      -4.805   1.102   0.159  0.00  0.00    -0.058 A 
ATOM      4  C   UNL     1      -4.492  -0.165   0.655  0.00  0.00    -0.051 A 
ATOM      5  C   UNL     1      -3.156  -0.585   0.705  0.00  0.00    +0.022 A 
ATOM      6  C   UNL     1      -2.132   0.271   0.256  0.00  0.00    +0.179 A 
ATOM      7  O   UNL     1      -0.867  -0.128   0.299  0.00  0.00    -0.435 OA
ATOM      8  C   UNL     1      -0.478  -1.318   0.760  0.00  0.00    +0.212 A 
ATOM      9  N   UNL     1       0.791  -1.641   0.706  0.00  0.00    -0.325 N 
ATOM     10  C   UNL     1      -1.457  -2.224   1.256  0.00  0.00    +0.097 A 
ATOM     11  C   UNL     1      -2.804  -1.839   1.205  0.00  0.00    -0.034 A 
ATOM     12  H   UNL     1      -4.065   2.931  -0.665  0.00  0.00    +0.066 HD
ATOM     13  H   UNL     1      -5.837   1.426   0.121  0.00  0.00    +0.062 HD
ATOM     14  H   UNL     1      -5.289  -0.813   1.000  0.00  0.00    +0.062 HD
ATOM     15  H   UNL     1       1.101  -2.616   0.912  0.00  0.00    +0.169 HD
ATOM     16  H   UNL     1      -3.575  -2.501   1.583  0.00  0.00    +0.063 HD
ENDROOT
BRANCH   9  17
ATOM     17  C   UNL     1       1.821  -0.747   0.241  0.00  0.00    +0.042 A 
ATOM     18  C   UNL     1       2.826  -1.236  -0.605  0.00  0.00    -0.035 A 
ATOM     19  C   UNL     1       3.850  -0.396  -1.053  0.00  0.00    -0.018 A 
ATOM     20  C   UNL     1       3.894   0.950  -0.642  0.00  0.00    +0.130 A 
ATOM     21  C   UNL     1       2.905   1.430   0.224  0.00  0.00    -0.018 A 
ATOM     22  C   UNL     1       1.882   0.590   0.671  0.00  0.00    -0.035 A 
ATOM     23  H   UNL     1       2.807  -2.270  -0.928  0.00  0.00    +0.064 HD
ATOM     24  H   UNL     1       4.600  -0.806  -1.714  0.00  0.00    +0.065 HD
ATOM     25  H   UNL     1       2.935   2.459   0.559  0.00  0.00    +0.065 HD
ATOM     26  H   UNL     1       1.150   0.980   1.367  0.00  0.00    +0.064 HD
BRANCH  20  27
ATOM     27  O   UNL     1       4.897   1.840  -1.062  0.00  0.00    -0.406 OA
BRANCH  27  28
ATOM     28  C   UNL     1       5.973   1.514  -1.938  0.00  0.00    +0.575 C 
ATOM     29  F   UNL     1       5.482   1.102  -3.164  0.00  0.00    -0.133 F 
ATOM     30  F   UNL     1       6.755   0.517  -1.384  0.00  0.00    -0.133 F 
ATOM     31  F   UNL     1       6.753   2.638  -2.127  0.00  0.00    -0.133 F 
ENDBRANCH  27  28
ENDBRANCH  20  27
ENDBRANCH   9  17
BRANCH  10  32
ATOM     32  C   UNL     1      -1.120  -3.527   1.875  0.00  0.00    +0.247 C 
ATOM     33  O   UNL     1      -0.183  -3.605   2.714  0.00  0.00    -0.270 OA
ATOM     34  N   UNL     1      -1.878  -4.697   1.563  0.00  0.00    -0.325 N 
ATOM     35  H   UNL     1      -1.661  -5.604   2.032  0.00  0.00    +0.145 HD
ATOM     36  H   UNL     1      -2.632  -4.672   0.841  0.00  0.00    +0.145 HD
ENDBRANCH  10  32
BRANCH   1  37
ATOM     37  O   UNL     1      -1.394   2.369  -0.677  0.00  0.00    -0.491 OA
BRANCH  37  38
ATOM     38  C   UNL     1      -1.565   3.682  -1.199  0.00  0.00    +0.079 C 
ATOM     39  H   UNL     1      -0.571   4.099  -1.462  0.00  0.00    +0.066 HD
ATOM     40  H   UNL     1      -2.036   4.338  -0.437  0.00  0.00    +0.066 HD
ATOM     41  H   UNL     1      -2.191   3.651  -2.116  0.00  0.00    +0.066 HD
ENDBRANCH  37  38
ENDBRANCH   1  37
TORSDOF 6
