REMARK  Name = 
REMARK  6 active torsions:
REMARK  status: ('A' for Active; 'I' for Inactive)
REMARK    1  A    between atoms: C_1  and  O_2
REMARK    2  A    between atoms: O_2  and  C_3
REMARK    3  A    between atoms: N_11  and  C_12
REMARK    4  A    between atoms: C_15  and  O_18
REMARK    5  A    between atoms: O_18  and  C_19
REMARK    6  A    between atoms: C_23  and  C_25
REMARK                            x       y       z     vdW  Elec       q    Type
REMARK                         _______ _______ _______ _____ _____    ______ ____
ROOT
ATOM      1  C   UNL     1      -2.182   1.458   0.693  0.00  0.00    +0.163 A 
ATOM      2  C   UNL     1      -3.476   1.907   1.025  0.00  0.00    -0.016 A 
ATOM      3  C   UNL     1      -4.571   1.044   0.926  0.00  0.00    -0.058 A 
ATOM      4  C   UNL     1      -4.392  -0.274   0.499  0.00  0.00    -0.051 A 
ATOM      5  C   UNL     1      -3.110  -0.732   0.166  0.00  0.00    +0.022 A 
ATOM      6  C   UNL     1      -2.006   0.135   0.263  0.00  0.00    +0.179 A 
ATOM      7  O   UNL     1      -0.792  -0.297  -0.057  0.00  0.00    -0.435 OA
ATOM      8  C   UNL     1      -0.530  -1.539  -0.469  0.00  0.00    +0.212 A 
ATOM      9  N   UNL     1       0.694  -1.851  -0.818  0.00  0.00    -0.325 N 
ATOM     10  C   UNL     1      -1.595  -2.478  -0.564  0.00  0.00    +0.097 A 
ATOM     11  C   UNL     1      -2.892  -2.045  -0.254  0.00  0.00    -0.034 A 
ATOM     12  H   UNL     1      -3.646   2.922   1.360  0.00  0.00    +0.066 HD
ATOM     13  H   UNL     1      -5.561   1.397   1.183  0.00  0.00    +0.062 HD
ATOM     14  H   UNL     1      -5.250  -0.932   0.430  0.00  0.00    +0.062 HD
ATOM     15  H   UNL     1       0.897  -2.760  -1.288  0.00  0.00    +0.169 HD
ATOM     16  H   UNL     1      -3.725  -2.737  -0.306  0.00  0.00    +0.063 HD
ENDROOT
BRANCH   9  17
ATOM     17  C   UNL     1       1.808  -0.944  -0.710  0.00  0.00    +0.042 A 
ATOM     18  C   UNL     1       2.024  -0.180   0.451  0.00  0.00    -0.035 A 
ATOM     19  C   UNL     1       3.123   0.678   0.540  0.00  0.00    -0.018 A 
ATOM     20  C   UNL     1       4.039   0.773  -0.526  0.00  0.00    +0.130 A 
ATOM     21  C   UNL     1       3.837  -0.011  -1.668  0.00  0.00    -0.018 A 
ATOM     22  C   UNL     1       2.737  -0.868  -1.757  0.00  0.00    -0.035 A 
ATOM     23  H   UNL     1       1.352  -0.260   1.296  0.00  0.00    +0.064 HD
ATOM     24  H   UNL     1       3.253   1.256   1.444  0.00  0.00    +0.065 HD
ATOM     25  H   UNL     1       4.537   0.046  -2.491  0.00  0.00    +0.065 HD
ATOM     26  H   UNL     1       2.600  -1.466  -2.650  0.00  0.00    +0.064 HD
BRANCH  20  27
ATOM     27  O   UNL     1       5.158   1.621  -0.493  0.00  0.00    -0.406 OA
BRANCH  27  28
ATOM     28  C   UNL     1       5.506   2.484   0.587  0.00  0.00    +0.575 C 
ATOM     29  F   UNL     1       6.660   3.168   0.260  0.00  0.00    -0.133 F 
ATOM     30  F   UNL     1       5.737   1.744   1.733  0.00  0.00    -0.133 F 
ATOM     31  F   UNL     1       4.494   3.399   0.812  0.00  0.00    -0.133 F 
ENDBRANCH  27  28
ENDBRANCH  20  27
ENDBRANCH   9  17
BRANCH  10  32
ATOM     32  C   UNL     1      -1.395  -3.902  -0.921  0.00  0.00    +0.247 C 
ATOM     33  O   UNL     1      -0.458  -4.559  -0.393  0.00  0.00    -0.270 OA
ATOM     34  N   UNL     1      -2.284  -4.556  -1.827  0.00  0.00    -0.325 N 
ATOM     35  H   UNL     1      -3.042  -4.027  -2.312  0.00  0.00    +0.145 HD
ATOM     36  H   UNL     1      -2.160  -5.570  -2.044  0.00  0.00    +0.145 HD
ENDBRANCH  10  32
BRANCH   1  37
ATOM     37  O   UNL     1      -1.054   2.290   0.779  0.00  0.00    -0.491 OA
BRANCH  37  38
ATOM     38  C   UNL     1      -1.086   3.649   1.204  0.00  0.00    +0.079 C 
ATOM     39  H   UNL     1      -1.468   3.714   2.244  0.00  0.00    +0.066 HD
ATOM     40  H   UNL     1      -0.057   4.061   1.176  0.00  0.00    +0.066 HD
ATOM     41  H   UNL     1      -1.727   4.247   0.522  0.00  0.00    +0.066 HD
ENDBRANCH  37  38
ENDBRANCH   1  37
TORSDOF 6
