REMARK  Name = 
REMARK  6 active torsions:
REMARK  status: ('A' for Active; 'I' for Inactive)
REMARK    1  A    between atoms: C_1  and  O_2
REMARK    2  A    between atoms: O_2  and  C_3
REMARK    3  A    between atoms: N_11  and  C_12
REMARK    4  A    between atoms: C_15  and  O_18
REMARK    5  A    between atoms: O_18  and  C_19
REMARK    6  A    between atoms: C_23  and  C_25
REMARK                            x       y       z     vdW  Elec       q    Type
REMARK                         _______ _______ _______ _____ _____    ______ ____
ROOT
ATOM      1  C   UNL     1      -1.766   1.766  -1.184  0.00  0.00    +0.163 A 
ATOM      2  C   UNL     1      -2.915   2.445  -1.637  0.00  0.00    -0.016 A 
ATOM      3  C   UNL     1      -4.182   1.877  -1.473  0.00  0.00    -0.058 A 
ATOM      4  C   UNL     1      -4.322   0.631  -0.858  0.00  0.00    -0.051 A 
ATOM      5  C   UNL     1      -3.187  -0.054  -0.404  0.00  0.00    +0.022 A 
ATOM      6  C   UNL     1      -1.910   0.514  -0.568  0.00  0.00    +0.179 A 
ATOM      7  O   UNL     1      -0.834  -0.137  -0.142  0.00  0.00    -0.435 OA
ATOM      8  C   UNL     1      -0.874  -1.327   0.459  0.00  0.00    +0.212 A 
ATOM      9  N   UNL     1       0.250  -1.914   0.790  0.00  0.00    -0.325 N 
ATOM     10  C   UNL     1      -2.135  -1.948   0.683  0.00  0.00    +0.097 A 
ATOM     11  C   UNL     1      -3.288  -1.295   0.225  0.00  0.00    -0.034 A 
ATOM     12  H   UNL     1      -2.840   3.412  -2.116  0.00  0.00    +0.066 HD
ATOM     13  H   UNL     1      -5.059   2.406  -1.824  0.00  0.00    +0.062 HD
ATOM     14  H   UNL     1      -5.311   0.206  -0.737  0.00  0.00    +0.062 HD
ATOM     15  H   UNL     1       0.255  -2.906   1.116  0.00  0.00    +0.169 HD
ATOM     16  H   UNL     1      -4.265  -1.737   0.388  0.00  0.00    +0.063 HD
ENDROOT
BRANCH   9  17
ATOM     17  C   UNL     1       1.546  -1.312   0.610  0.00  0.00    +0.042 A 
ATOM     18  C   UNL     1       1.794   0.021   0.986  0.00  0.00    -0.035 A 
ATOM     19  C   UNL     1       3.066   0.578   0.820  0.00  0.00    -0.018 A 
ATOM     20  C   UNL     1       4.117  -0.196   0.294  0.00  0.00    +0.130 A 
ATOM     21  C   UNL     1       3.873  -1.530  -0.051  0.00  0.00    -0.018 A 
ATOM     22  C   UNL     1       2.602  -2.087   0.113  0.00  0.00    -0.035 A 
ATOM     23  H   UNL     1       1.010   0.626   1.423  0.00  0.00    +0.064 HD
ATOM     24  H   UNL     1       3.218   1.607   1.113  0.00  0.00    +0.065 HD
ATOM     25  H   UNL     1       4.675  -2.140  -0.450  0.00  0.00    +0.065 HD
ATOM     26  H   UNL     1       2.435  -3.122  -0.160  0.00  0.00    +0.064 HD
BRANCH  20  27
ATOM     27  O   UNL     1       5.412   0.312   0.102  0.00  0.00    -0.406 OA
BRANCH  27  28
ATOM     28  C   UNL     1       5.827   1.644   0.397  0.00  0.00    +0.575 C 
ATOM     29  F   UNL     1       5.667   1.905   1.746  0.00  0.00    -0.133 F 
ATOM     30  F   UNL     1       7.162   1.781   0.072  0.00  0.00    -0.133 F 
ATOM     31  F   UNL     1       5.091   2.548  -0.348  0.00  0.00    -0.133 F 
ENDBRANCH  27  28
ENDBRANCH  20  27
ENDBRANCH   9  17
BRANCH  10  32
ATOM     32  C   UNL     1      -2.294  -3.222   1.423  0.00  0.00    +0.247 C 
ATOM     33  O   UNL     1      -1.669  -3.408   2.502  0.00  0.00    -0.270 OA
ATOM     34  N   UNL     1      -3.187  -4.231   0.950  0.00  0.00    -0.325 N 
ATOM     35  H   UNL     1      -3.686  -4.123   0.039  0.00  0.00    +0.145 HD
ATOM     36  H   UNL     1      -3.324  -5.110   1.497  0.00  0.00    +0.145 HD
ENDBRANCH  10  32
BRANCH   1  37
ATOM     37  O   UNL     1      -0.476   2.299  -1.326  0.00  0.00    -0.491 OA
BRANCH  37  38
ATOM     38  C   UNL     1      -0.185   3.558  -1.925  0.00  0.00    +0.079 C 
ATOM     39  H   UNL     1      -0.523   3.564  -2.982  0.00  0.00    +0.066 HD
ATOM     40  H   UNL     1       0.911   3.726  -1.901  0.00  0.00    +0.066 HD
ATOM     41  H   UNL     1      -0.682   4.374  -1.359  0.00  0.00    +0.066 HD
ENDBRANCH  37  38
ENDBRANCH   1  37
TORSDOF 6
