REMARK  Name = 
REMARK  6 active torsions:
REMARK  status: ('A' for Active; 'I' for Inactive)
REMARK    1  A    between atoms: C_1  and  O_2
REMARK    2  A    between atoms: O_2  and  C_3
REMARK    3  A    between atoms: N_11  and  C_12
REMARK    4  A    between atoms: C_15  and  O_18
REMARK    5  A    between atoms: O_18  and  C_19
REMARK    6  A    between atoms: C_23  and  C_25
REMARK                            x       y       z     vdW  Elec       q    Type
REMARK                         _______ _______ _______ _____ _____    ______ ____
ROOT
ATOM      1  C   UNL     1      -2.591   1.304   0.063  0.00  0.00    +0.163 A 
ATOM      2  C   UNL     1      -3.972   1.578  -0.011  0.00  0.00    -0.016 A 
ATOM      3  C   UNL     1      -4.903   0.536   0.039  0.00  0.00    -0.058 A 
ATOM      4  C   UNL     1      -4.473  -0.787   0.164  0.00  0.00    -0.051 A 
ATOM      5  C   UNL     1      -3.103  -1.073   0.238  0.00  0.00    +0.022 A 
ATOM      6  C   UNL     1      -2.163  -0.026   0.187  0.00  0.00    +0.179 A 
ATOM      7  O   UNL     1      -0.865  -0.297   0.252  0.00  0.00    -0.435 OA
ATOM      8  C   UNL     1      -0.367  -1.529   0.376  0.00  0.00    +0.212 A 
ATOM      9  N   UNL     1       0.932  -1.696   0.372  0.00  0.00    -0.325 N 
ATOM     10  C   UNL     1      -1.262  -2.632   0.461  0.00  0.00    +0.097 A 
ATOM     11  C   UNL     1      -2.638  -2.380   0.374  0.00  0.00    -0.034 A 
ATOM     12  H   UNL     1      -4.335   2.592  -0.107  0.00  0.00    +0.066 HD
ATOM     13  H   UNL     1      -5.961   0.755  -0.018  0.00  0.00    +0.062 HD
ATOM     14  H   UNL     1      -5.207  -1.583   0.204  0.00  0.00    +0.062 HD
ATOM     15  H   UNL     1       1.344  -2.653   0.311  0.00  0.00    +0.169 HD
ATOM     16  H   UNL     1      -3.347  -3.198   0.445  0.00  0.00    +0.063 HD
ENDROOT
BRANCH   9  17
ATOM     17  C   UNL     1       1.875  -0.608   0.319  0.00  0.00    +0.042 A 
ATOM     18  C   UNL     1       1.733   0.528   1.135  0.00  0.00    -0.035 A 
ATOM     19  C   UNL     1       2.675   1.559   1.081  0.00  0.00    -0.018 A 
ATOM     20  C   UNL     1       3.783   1.469   0.230  0.00  0.00    +0.130 A 
ATOM     21  C   UNL     1       3.941   0.319  -0.568  0.00  0.00    -0.018 A 
ATOM     22  C   UNL     1       2.998  -0.712  -0.514  0.00  0.00    -0.035 A 
ATOM     23  H   UNL     1       0.905   0.610   1.828  0.00  0.00    +0.064 HD
ATOM     24  H   UNL     1       2.549   2.430   1.711  0.00  0.00    +0.065 HD
ATOM     25  H   UNL     1       4.787   0.209  -1.231  0.00  0.00    +0.065 HD
ATOM     26  H   UNL     1       3.135  -1.590  -1.133  0.00  0.00    +0.064 HD
BRANCH  20  27
ATOM     27  O   UNL     1       4.695   2.536   0.215  0.00  0.00    -0.406 OA
BRANCH  27  28
ATOM     28  C   UNL     1       5.871   2.603  -0.589  0.00  0.00    +0.575 C 
ATOM     29  F   UNL     1       6.516   3.799  -0.340  0.00  0.00    -0.133 F 
ATOM     30  F   UNL     1       5.534   2.549  -1.930  0.00  0.00    -0.133 F 
ATOM     31  F   UNL     1       6.725   1.562  -0.275  0.00  0.00    -0.133 F 
ENDBRANCH  27  28
ENDBRANCH  20  27
ENDBRANCH   9  17
BRANCH  10  32
ATOM     32  C   UNL     1      -0.814  -4.025   0.694  0.00  0.00    +0.247 C 
ATOM     33  O   UNL     1       0.056  -4.271   1.572  0.00  0.00    -0.270 OA
ATOM     34  N   UNL     1      -1.392  -5.106  -0.040  0.00  0.00    -0.325 N 
ATOM     35  H   UNL     1      -2.082  -4.930  -0.803  0.00  0.00    +0.145 HD
ATOM     36  H   UNL     1      -1.100  -6.090   0.156  0.00  0.00    +0.145 HD
ENDBRANCH  10  32
BRANCH   1  37
ATOM     37  O   UNL     1      -1.622   2.318   0.018  0.00  0.00    -0.491 OA
BRANCH  37  38
ATOM     38  C   UNL     1      -1.915   3.706  -0.101  0.00  0.00    +0.079 C 
ATOM     39  H   UNL     1      -2.456   3.903  -1.050  0.00  0.00    +0.066 HD
ATOM     40  H   UNL     1      -2.523   4.044   0.764  0.00  0.00    +0.066 HD
ATOM     41  H   UNL     1      -0.963   4.277  -0.110  0.00  0.00    +0.066 HD
ENDBRANCH  37  38
ENDBRANCH   1  37
TORSDOF 6
