REMARK  Name = 
REMARK  6 active torsions:
REMARK  status: ('A' for Active; 'I' for Inactive)
REMARK    1  A    between atoms: C_1  and  O_2
REMARK    2  A    between atoms: O_2  and  C_3
REMARK    3  A    between atoms: N_11  and  C_12
REMARK    4  A    between atoms: C_15  and  O_18
REMARK    5  A    between atoms: O_18  and  C_19
REMARK    6  A    between atoms: C_23  and  C_25
REMARK                            x       y       z     vdW  Elec       q    Type
REMARK                         _______ _______ _______ _____ _____    ______ ____
ROOT
ATOM      1  C   UNL     1      -1.934  -1.712   0.927  0.00  0.00    +0.163 A 
ATOM      2  C   UNL     1      -3.146  -2.333   1.287  0.00  0.00    -0.016 A 
ATOM      3  C   UNL     1      -4.357  -1.647   1.161  0.00  0.00    -0.058 A 
ATOM      4  C   UNL     1      -4.377  -0.338   0.675  0.00  0.00    -0.051 A 
ATOM      5  C   UNL     1      -3.178   0.292   0.314  0.00  0.00    +0.022 A 
ATOM      6  C   UNL     1      -1.957  -0.396   0.441  0.00  0.00    +0.179 A 
ATOM      7  O   UNL     1      -0.820   0.201   0.103  0.00  0.00    -0.435 OA
ATOM      8  C   UNL     1      -0.748   1.445  -0.373  0.00  0.00    +0.212 A 
ATOM      9  N   UNL     1       0.429   1.965  -0.622  0.00  0.00    -0.325 N 
ATOM     10  C   UNL     1      -1.946   2.190  -0.554  0.00  0.00    +0.097 A 
ATOM     11  C   UNL     1      -3.161   1.594  -0.186  0.00  0.00    -0.034 A 
ATOM     12  H   UNL     1      -3.163  -3.346   1.666  0.00  0.00    +0.066 HD
ATOM     13  H   UNL     1      -5.284  -2.132   1.440  0.00  0.00    +0.062 HD
ATOM     14  H   UNL     1      -5.324   0.180   0.580  0.00  0.00    +0.062 HD
ATOM     15  H   UNL     1       0.525   2.981  -0.845  0.00  0.00    +0.169 HD
ATOM     16  H   UNL     1      -4.093   2.130  -0.320  0.00  0.00    +0.063 HD
ENDROOT
BRANCH   9  17
ATOM     17  C   UNL     1       1.666   1.240  -0.482  0.00  0.00    +0.042 A 
ATOM     18  C   UNL     1       1.814  -0.064  -0.988  0.00  0.00    -0.035 A 
ATOM     19  C   UNL     1       3.030  -0.740  -0.859  0.00  0.00    -0.018 A 
ATOM     20  C   UNL     1       4.128  -0.115  -0.237  0.00  0.00    +0.130 A 
ATOM     21  C   UNL     1       3.986   1.193   0.239  0.00  0.00    -0.018 A 
ATOM     22  C   UNL     1       2.769   1.869   0.110  0.00  0.00    -0.035 A 
ATOM     23  H   UNL     1       0.995  -0.553  -1.499  0.00  0.00    +0.064 HD
ATOM     24  H   UNL     1       3.105  -1.744  -1.253  0.00  0.00    +0.065 HD
ATOM     25  H   UNL     1       4.824   1.690   0.712  0.00  0.00    +0.065 HD
ATOM     26  H   UNL     1       2.681   2.881   0.485  0.00  0.00    +0.064 HD
BRANCH  20  27
ATOM     27  O   UNL     1       5.372  -0.748  -0.076  0.00  0.00    -0.406 OA
BRANCH  27  28
ATOM     28  C   UNL     1       5.682  -2.074  -0.499  0.00  0.00    +0.575 C 
ATOM     29  F   UNL     1       5.537  -2.183  -1.870  0.00  0.00    -0.133 F 
ATOM     30  F   UNL     1       4.856  -2.983   0.137  0.00  0.00    -0.133 F 
ATOM     31  F   UNL     1       6.993  -2.355  -0.166  0.00  0.00    -0.133 F 
ENDBRANCH  27  28
ENDBRANCH  20  27
ENDBRANCH   9  17
BRANCH  10  32
ATOM     32  C   UNL     1      -1.980   3.541  -1.162  0.00  0.00    +0.247 C 
ATOM     33  O   UNL     1      -1.314   3.781  -2.205  0.00  0.00    -0.270 OA
ATOM     34  N   UNL     1      -2.800   4.569  -0.604  0.00  0.00    -0.325 N 
ATOM     35  H   UNL     1      -2.850   5.507  -1.060  0.00  0.00    +0.145 HD
ATOM     36  H   UNL     1      -3.329   4.412   0.282  0.00  0.00    +0.145 HD
ENDBRANCH  10  32
BRANCH   1  37
ATOM     37  O   UNL     1      -0.696  -2.364   1.036  0.00  0.00    -0.491 OA
BRANCH  37  38
ATOM     38  C   UNL     1      -0.525  -3.696   1.508  0.00  0.00    +0.079 C 
ATOM     39  H   UNL     1       0.553  -3.953   1.486  0.00  0.00    +0.066 HD
ATOM     40  H   UNL     1      -1.073  -4.406   0.852  0.00  0.00    +0.066 HD
ATOM     41  H   UNL     1      -0.891  -3.781   2.553  0.00  0.00    +0.066 HD
ENDBRANCH  37  38
ENDBRANCH   1  37
TORSDOF 6
