REMARK  Name = 
REMARK  6 active torsions:
REMARK  status: ('A' for Active; 'I' for Inactive)
REMARK    1  A    between atoms: C_1  and  O_2
REMARK    2  A    between atoms: O_2  and  C_3
REMARK    3  A    between atoms: N_11  and  C_12
REMARK    4  A    between atoms: C_15  and  O_18
REMARK    5  A    between atoms: O_18  and  C_19
REMARK    6  A    between atoms: C_23  and  C_25
REMARK                            x       y       z     vdW  Elec       q    Type
REMARK                         _______ _______ _______ _____ _____    ______ ____
ROOT
ATOM      1  C   UNL     1      -2.209   1.533   0.531  0.00  0.00    +0.163 A 
ATOM      2  C   UNL     1      -3.510   2.014   0.779  0.00  0.00    -0.016 A 
ATOM      3  C   UNL     1      -4.586   1.125   0.875  0.00  0.00    -0.058 A 
ATOM      4  C   UNL     1      -4.380  -0.248   0.726  0.00  0.00    -0.051 A 
ATOM      5  C   UNL     1      -3.091  -0.738   0.479  0.00  0.00    +0.022 A 
ATOM      6  C   UNL     1      -2.006   0.153   0.381  0.00  0.00    +0.179 A 
ATOM      7  O   UNL     1      -0.785  -0.310   0.142  0.00  0.00    -0.435 OA
ATOM      8  C   UNL     1      -0.497  -1.604  -0.009  0.00  0.00    +0.212 A 
ATOM      9  N   UNL     1       0.731  -1.955  -0.300  0.00  0.00    -0.325 N 
ATOM     10  C   UNL     1      -1.541  -2.564   0.105  0.00  0.00    +0.097 A 
ATOM     11  C   UNL     1      -2.845  -2.104   0.336  0.00  0.00    -0.034 A 
ATOM     12  H   UNL     1      -3.701   3.072   0.900  0.00  0.00    +0.066 HD
ATOM     13  H   UNL     1      -5.582   1.503   1.066  0.00  0.00    +0.062 HD
ATOM     14  H   UNL     1      -5.223  -0.924   0.806  0.00  0.00    +0.062 HD
ATOM     15  H   UNL     1       0.951  -2.938  -0.576  0.00  0.00    +0.169 HD
ATOM     16  H   UNL     1      -3.662  -2.810   0.438  0.00  0.00    +0.063 HD
ENDROOT
BRANCH   9  17
ATOM     17  C   UNL     1       1.824  -1.022  -0.397  0.00  0.00    +0.042 A 
ATOM     18  C   UNL     1       2.743  -1.145  -1.448  0.00  0.00    -0.035 A 
ATOM     19  C   UNL     1       3.823  -0.264  -1.552  0.00  0.00    -0.018 A 
ATOM     20  C   UNL     1       4.016   0.743  -0.599  0.00  0.00    +0.130 A 
ATOM     21  C   UNL     1       3.111   0.851   0.475  0.00  0.00    -0.018 A 
ATOM     22  C   UNL     1       2.031  -0.030   0.579  0.00  0.00    -0.035 A 
ATOM     23  H   UNL     1       2.612  -1.917  -2.196  0.00  0.00    +0.064 HD
ATOM     24  H   UNL     1       4.516  -0.364  -2.378  0.00  0.00    +0.065 HD
ATOM     25  H   UNL     1       3.235   1.605   1.239  0.00  0.00    +0.065 HD
ATOM     26  H   UNL     1       1.368   0.051   1.431  0.00  0.00    +0.064 HD
BRANCH  20  27
ATOM     27  O   UNL     1       5.115   1.602  -0.756  0.00  0.00    -0.406 OA
BRANCH  27  28
ATOM     28  C   UNL     1       5.452   2.677   0.119  0.00  0.00    +0.575 C 
ATOM     29  F   UNL     1       6.587   3.304  -0.357  0.00  0.00    -0.133 F 
ATOM     30  F   UNL     1       4.420   3.597   0.163  0.00  0.00    -0.133 F 
ATOM     31  F   UNL     1       5.708   2.195   1.390  0.00  0.00    -0.133 F 
ENDBRANCH  27  28
ENDBRANCH  20  27
ENDBRANCH   9  17
BRANCH  10  32
ATOM     32  C   UNL     1      -1.310  -4.027   0.048  0.00  0.00    +0.247 C 
ATOM     33  O   UNL     1      -0.354  -4.541   0.688  0.00  0.00    -0.270 OA
ATOM     34  N   UNL     1      -2.191  -4.873  -0.693  0.00  0.00    -0.325 N 
ATOM     35  H   UNL     1      -2.046  -5.907  -0.698  0.00  0.00    +0.145 HD
ATOM     36  H   UNL     1      -2.966  -4.472  -1.267  0.00  0.00    +0.145 HD
ENDBRANCH  10  32
BRANCH   1  37
ATOM     37  O   UNL     1      -1.101   2.389   0.429  0.00  0.00    -0.491 OA
BRANCH  37  38
ATOM     38  C   UNL     1      -1.161   3.805   0.565  0.00  0.00    +0.079 C 
ATOM     39  H   UNL     1      -0.141   4.224   0.440  0.00  0.00    +0.066 HD
ATOM     40  H   UNL     1      -1.536   4.076   1.574  0.00  0.00    +0.066 HD
ATOM     41  H   UNL     1      -1.821   4.236  -0.217  0.00  0.00    +0.066 HD
ENDBRANCH  37  38
ENDBRANCH   1  37
TORSDOF 6
