REMARK  Name = 
REMARK  6 active torsions:
REMARK  status: ('A' for Active; 'I' for Inactive)
REMARK    1  A    between atoms: C_1  and  O_2
REMARK    2  A    between atoms: O_2  and  C_3
REMARK    3  A    between atoms: N_11  and  C_12
REMARK    4  A    between atoms: C_15  and  O_18
REMARK    5  A    between atoms: O_18  and  C_19
REMARK    6  A    between atoms: C_23  and  C_25
REMARK                            x       y       z     vdW  Elec       q    Type
REMARK                         _______ _______ _______ _____ _____    ______ ____
ROOT
ATOM      1  C   UNL     1      -1.419   2.315   0.278  0.00  0.00    +0.163 A 
ATOM      2  C   UNL     1      -2.421   3.291   0.449  0.00  0.00    -0.016 A 
ATOM      3  C   UNL     1      -3.758   2.911   0.606  0.00  0.00    -0.058 A 
ATOM      4  C   UNL     1      -4.112   1.560   0.597  0.00  0.00    -0.051 A 
ATOM      5  C   UNL     1      -3.124   0.580   0.427  0.00  0.00    +0.022 A 
ATOM      6  C   UNL     1      -1.778   0.959   0.268  0.00  0.00    +0.179 A 
ATOM      7  O   UNL     1      -0.842   0.032   0.103  0.00  0.00    -0.435 OA
ATOM      8  C   UNL     1      -1.090  -1.279   0.086  0.00  0.00    +0.212 A 
ATOM      9  N   UNL     1      -0.104  -2.112  -0.142  0.00  0.00    -0.325 N 
ATOM     10  C   UNL     1      -2.425  -1.735   0.269  0.00  0.00    +0.097 A 
ATOM     11  C   UNL     1      -3.438  -0.778   0.425  0.00  0.00    -0.034 A 
ATOM     12  H   UNL     1      -2.178   4.344   0.461  0.00  0.00    +0.066 HD
ATOM     13  H   UNL     1      -4.521   3.667   0.736  0.00  0.00    +0.062 HD
ATOM     14  H   UNL     1      -5.152   1.282   0.723  0.00  0.00    +0.062 HD
ATOM     15  H   UNL     1      -0.293  -3.124  -0.315  0.00  0.00    +0.169 HD
ATOM     16  H   UNL     1      -4.465  -1.093   0.576  0.00  0.00    +0.063 HD
ENDROOT
BRANCH   9  17
ATOM     17  C   UNL     1       1.266  -1.699  -0.304  0.00  0.00    +0.042 A 
ATOM     18  C   UNL     1       1.864  -0.777   0.575  0.00  0.00    -0.035 A 
ATOM     19  C   UNL     1       3.202  -0.407   0.410  0.00  0.00    -0.018 A 
ATOM     20  C   UNL     1       3.972  -0.968  -0.627  0.00  0.00    +0.130 A 
ATOM     21  C   UNL     1       3.381  -1.906  -1.482  0.00  0.00    -0.018 A 
ATOM     22  C   UNL     1       2.043  -2.276  -1.318  0.00  0.00    -0.035 A 
ATOM     23  H   UNL     1       1.302  -0.358   1.399  0.00  0.00    +0.064 HD
ATOM     24  H   UNL     1       3.626   0.309   1.099  0.00  0.00    +0.065 HD
ATOM     25  H   UNL     1       3.964  -2.351  -2.278  0.00  0.00    +0.065 HD
ATOM     26  H   UNL     1       1.607  -3.004  -1.990  0.00  0.00    +0.064 HD
BRANCH  20  27
ATOM     27  O   UNL     1       5.317  -0.629  -0.842  0.00  0.00    -0.406 OA
BRANCH  27  28
ATOM     28  C   UNL     1       6.065   0.307  -0.069  0.00  0.00    +0.575 C 
ATOM     29  F   UNL     1       7.347   0.386  -0.578  0.00  0.00    -0.133 F 
ATOM     30  F   UNL     1       6.134  -0.110   1.248  0.00  0.00    -0.133 F 
ATOM     31  F   UNL     1       5.480   1.558  -0.138  0.00  0.00    -0.133 F 
ENDBRANCH  27  28
ENDBRANCH  20  27
ENDBRANCH   9  17
BRANCH  10  32
ATOM     32  C   UNL     1      -2.790  -3.168   0.360  0.00  0.00    +0.247 C 
ATOM     33  O   UNL     1      -2.102  -3.951   1.069  0.00  0.00    -0.270 OA
ATOM     34  N   UNL     1      -3.946  -3.668  -0.314  0.00  0.00    -0.325 N 
ATOM     35  H   UNL     1      -4.219  -4.671  -0.215  0.00  0.00    +0.145 HD
ATOM     36  H   UNL     1      -4.510  -3.054  -0.942  0.00  0.00    +0.145 HD
ENDBRANCH  10  32
BRANCH   1  37
ATOM     37  O   UNL     1      -0.065   2.651   0.118  0.00  0.00    -0.491 OA
BRANCH  37  38
ATOM     38  C   UNL     1       0.439   3.982   0.114  0.00  0.00    +0.079 C 
ATOM     39  H   UNL     1       0.219   4.477   1.083  0.00  0.00    +0.066 HD
ATOM     40  H   UNL     1      -0.011   4.559  -0.721  0.00  0.00    +0.066 HD
ATOM     41  H   UNL     1       1.539   3.952  -0.028  0.00  0.00    +0.066 HD
ENDBRANCH  37  38
ENDBRANCH   1  37
TORSDOF 6
