REMARK  Name = 
REMARK  6 active torsions:
REMARK  status: ('A' for Active; 'I' for Inactive)
REMARK    1  A    between atoms: C_1  and  O_2
REMARK    2  A    between atoms: O_2  and  C_3
REMARK    3  A    between atoms: N_11  and  C_12
REMARK    4  A    between atoms: C_15  and  O_18
REMARK    5  A    between atoms: O_18  and  C_19
REMARK    6  A    between atoms: C_23  and  C_25
REMARK                            x       y       z     vdW  Elec       q    Type
REMARK                         _______ _______ _______ _____ _____    ______ ____
ROOT
ATOM      1  C   UNL     1      -2.444   1.209  -0.995  0.00  0.00    +0.163 A 
ATOM      2  C   UNL     1      -3.779   1.475  -1.358  0.00  0.00    -0.016 A 
ATOM      3  C   UNL     1      -4.787   0.551  -1.069  0.00  0.00    -0.058 A 
ATOM      4  C   UNL     1      -4.481  -0.644  -0.416  0.00  0.00    -0.051 A 
ATOM      5  C   UNL     1      -3.157  -0.920  -0.050  0.00  0.00    +0.022 A 
ATOM      6  C   UNL     1      -2.139   0.007  -0.339  0.00  0.00    +0.179 A 
ATOM      7  O   UNL     1      -0.883  -0.256   0.004  0.00  0.00    -0.435 OA
ATOM      8  C   UNL     1      -0.500  -1.374   0.623  0.00  0.00    +0.212 A 
ATOM      9  N   UNL     1       0.772  -1.558   0.880  0.00  0.00    -0.325 N 
ATOM     10  C   UNL     1      -1.483  -2.341   0.978  0.00  0.00    +0.097 A 
ATOM     11  C   UNL     1      -2.815  -2.099   0.612  0.00  0.00    -0.034 A 
ATOM     12  H   UNL     1      -4.047   2.392  -1.865  0.00  0.00    +0.066 HD
ATOM     13  H   UNL     1      -5.810   0.764  -1.352  0.00  0.00    +0.062 HD
ATOM     14  H   UNL     1      -5.274  -1.349  -0.197  0.00  0.00    +0.062 HD
ATOM     15  H   UNL     1       1.101  -2.407   1.388  0.00  0.00    +0.169 HD
ATOM     16  H   UNL     1      -3.587  -2.817   0.868  0.00  0.00    +0.063 HD
ENDROOT
BRANCH   9  17
ATOM     17  C   UNL     1       1.800  -0.612   0.533  0.00  0.00    +0.042 A 
ATOM     18  C   UNL     1       2.799  -0.310   1.469  0.00  0.00    -0.035 A 
ATOM     19  C   UNL     1       3.824   0.587   1.150  0.00  0.00    -0.018 A 
ATOM     20  C   UNL     1       3.874   1.184  -0.124  0.00  0.00    +0.130 A 
ATOM     21  C   UNL     1       2.891   0.860  -1.066  0.00  0.00    -0.018 A 
ATOM     22  C   UNL     1       1.867  -0.036  -0.748  0.00  0.00    -0.035 A 
ATOM     23  H   UNL     1       2.775  -0.763   2.452  0.00  0.00    +0.064 HD
ATOM     24  H   UNL     1       4.569   0.804   1.902  0.00  0.00    +0.065 HD
ATOM     25  H   UNL     1       2.926   1.301  -2.055  0.00  0.00    +0.065 HD
ATOM     26  H   UNL     1       1.141  -0.294  -1.508  0.00  0.00    +0.064 HD
BRANCH  20  27
ATOM     27  O   UNL     1       4.877   2.093  -0.498  0.00  0.00    -0.406 OA
BRANCH  27  28
ATOM     28  C   UNL     1       5.947   2.528   0.337  0.00  0.00    +0.575 C 
ATOM     29  F   UNL     1       6.729   1.450   0.711  0.00  0.00    -0.133 F 
ATOM     30  F   UNL     1       5.448   3.162   1.462  0.00  0.00    -0.133 F 
ATOM     31  F   UNL     1       6.730   3.422  -0.367  0.00  0.00    -0.133 F 
ENDBRANCH  27  28
ENDBRANCH  20  27
ENDBRANCH   9  17
BRANCH  10  32
ATOM     32  C   UNL     1      -1.179  -3.573   1.740  0.00  0.00    +0.247 C 
ATOM     33  O   UNL     1      -0.499  -3.511   2.798  0.00  0.00    -0.270 OA
ATOM     34  N   UNL     1      -1.698  -4.834   1.314  0.00  0.00    -0.325 N 
ATOM     35  H   UNL     1      -2.242  -4.918   0.426  0.00  0.00    +0.145 HD
ATOM     36  H   UNL     1      -1.513  -5.695   1.874  0.00  0.00    +0.145 HD
ENDBRANCH  10  32
BRANCH   1  37
ATOM     37  O   UNL     1      -1.399   2.107  -1.268  0.00  0.00    -0.491 OA
BRANCH  37  38
ATOM     38  C   UNL     1      -1.563   3.356  -1.931  0.00  0.00    +0.079 C 
ATOM     39  H   UNL     1      -1.968   3.195  -2.953  0.00  0.00    +0.066 HD
ATOM     40  H   UNL     1      -2.245   4.011  -1.348  0.00  0.00    +0.066 HD
ATOM     41  H   UNL     1      -0.576   3.854  -2.014  0.00  0.00    +0.066 HD
ENDBRANCH  37  38
ENDBRANCH   1  37
TORSDOF 6
