REMARK  Name = 
REMARK  6 active torsions:
REMARK  status: ('A' for Active; 'I' for Inactive)
REMARK    1  A    between atoms: C_1  and  O_2
REMARK    2  A    between atoms: O_2  and  C_3
REMARK    3  A    between atoms: N_11  and  C_12
REMARK    4  A    between atoms: C_15  and  O_18
REMARK    5  A    between atoms: O_18  and  C_19
REMARK    6  A    between atoms: C_23  and  C_25
REMARK                            x       y       z     vdW  Elec       q    Type
REMARK                         _______ _______ _______ _____ _____    ______ ____
ROOT
ATOM      1  C   UNL     1      -2.197  -0.789   1.724  0.00  0.00    +0.163 A 
ATOM      2  C   UNL     1      -3.429  -0.876   2.404  0.00  0.00    -0.016 A 
ATOM      3  C   UNL     1      -4.423   0.083   2.189  0.00  0.00    -0.058 A 
ATOM      4  C   UNL     1      -4.206   1.136   1.298  0.00  0.00    -0.051 A 
ATOM      5  C   UNL     1      -2.986   1.233   0.616  0.00  0.00    +0.022 A 
ATOM      6  C   UNL     1      -1.982   0.271   0.830  0.00  0.00    +0.179 A 
ATOM      7  O   UNL     1      -0.827   0.359   0.180  0.00  0.00    -0.435 OA
ATOM      8  C   UNL     1      -0.538   1.326  -0.693  0.00  0.00    +0.212 A 
ATOM      9  N   UNL     1       0.616   1.300  -1.315  0.00  0.00    -0.325 N 
ATOM     10  C   UNL     1      -1.494   2.353  -0.931  0.00  0.00    +0.097 A 
ATOM     11  C   UNL     1      -2.730   2.276  -0.274  0.00  0.00    -0.034 A 
ATOM     12  H   UNL     1      -3.627  -1.679   3.100  0.00  0.00    +0.066 HD
ATOM     13  H   UNL     1      -5.366   0.009   2.716  0.00  0.00    +0.062 HD
ATOM     14  H   UNL     1      -4.987   1.872   1.144  0.00  0.00    +0.062 HD
ATOM     15  H   UNL     1       0.885   2.056  -1.981  0.00  0.00    +0.169 HD
ATOM     16  H   UNL     1      -3.479   3.043  -0.435  0.00  0.00    +0.063 HD
ENDROOT
BRANCH   9  17
ATOM     17  C   UNL     1       1.609   0.278  -1.110  0.00  0.00    +0.042 A 
ATOM     18  C   UNL     1       1.271  -1.088  -1.118  0.00  0.00    -0.035 A 
ATOM     19  C   UNL     1       2.259  -2.060  -0.942  0.00  0.00    -0.018 A 
ATOM     20  C   UNL     1       3.599  -1.693  -0.776  0.00  0.00    +0.130 A 
ATOM     21  C   UNL     1       3.943  -0.328  -0.796  0.00  0.00    -0.018 A 
ATOM     22  C   UNL     1       2.954   0.645  -0.972  0.00  0.00    -0.035 A 
ATOM     23  H   UNL     1       0.248  -1.402  -1.279  0.00  0.00    +0.064 HD
ATOM     24  H   UNL     1       1.983  -3.107  -0.944  0.00  0.00    +0.065 HD
ATOM     25  H   UNL     1       4.967  -0.005  -0.680  0.00  0.00    +0.065 HD
ATOM     26  H   UNL     1       3.234   1.692  -0.987  0.00  0.00    +0.064 HD
BRANCH  20  27
ATOM     27  O   UNL     1       4.549  -2.713  -0.600  0.00  0.00    -0.406 OA
BRANCH  27  28
ATOM     28  C   UNL     1       5.949  -2.513  -0.419  0.00  0.00    +0.575 C 
ATOM     29  F   UNL     1       6.562  -3.742  -0.275  0.00  0.00    -0.133 F 
ATOM     30  F   UNL     1       6.179  -1.763   0.721  0.00  0.00    -0.133 F 
ATOM     31  F   UNL     1       6.486  -1.873  -1.521  0.00  0.00    -0.133 F 
ENDBRANCH  27  28
ENDBRANCH  20  27
ENDBRANCH   9  17
BRANCH  10  32
ATOM     32  C   UNL     1      -1.242   3.515  -1.813  0.00  0.00    +0.247 C 
ATOM     33  O   UNL     1      -0.183   4.186  -1.688  0.00  0.00    -0.270 OA
ATOM     34  N   UNL     1      -2.218   3.920  -2.774  0.00  0.00    -0.325 N 
ATOM     35  H   UNL     1      -2.053   4.762  -3.369  0.00  0.00    +0.145 HD
ATOM     36  H   UNL     1      -3.091   3.366  -2.917  0.00  0.00    +0.145 HD
ENDBRANCH  10  32
BRANCH   1  37
ATOM     37  O   UNL     1      -1.172  -1.730   1.907  0.00  0.00    -0.491 OA
BRANCH  37  38
ATOM     38  C   UNL     1      -1.257  -2.855   2.776  0.00  0.00    +0.079 C 
ATOM     39  H   UNL     1      -2.090  -3.518   2.461  0.00  0.00    +0.066 HD
ATOM     40  H   UNL     1      -0.308  -3.426   2.722  0.00  0.00    +0.066 HD
ATOM     41  H   UNL     1      -1.411  -2.518   3.823  0.00  0.00    +0.066 HD
ENDBRANCH  37  38
ENDBRANCH   1  37
TORSDOF 6
