REMARK  Name = 
REMARK  14 active torsions:
REMARK  status: ('A' for Active; 'I' for Inactive)
REMARK    1  A    between atoms: C_1  and  C_2
REMARK    2  A    between atoms: C_2  and  C_3
REMARK    3  A    between atoms: C_2  and  C_4
REMARK    4  A    between atoms: C_2  and  N_5
REMARK    5  A    between atoms: C_6  and  C_8
REMARK    6  A    between atoms: C_13  and  C_14
REMARK    7  A    between atoms: C_14  and  C_15
REMARK    8  A    between atoms: C_15  and  O_16
REMARK    9  A    between atoms: C_15  and  C_17
REMARK   10  A    between atoms: C_17  and  C_18
REMARK   11  A    between atoms: C_17  and  N_30
REMARK   12  A    between atoms: C_18  and  S_19
REMARK   13  A    between atoms: S_19  and  C_20
REMARK   14  A    between atoms: C_31  and  C_33
REMARK                            x       y       z     vdW  Elec       q    Type
REMARK                         _______ _______ _______ _____ _____    ______ ____
ROOT
ATOM      1  C   UNL     1      -0.380  -1.094   0.634  0.00  0.00    +0.059 C 
ATOM      2  H   UNL     1       0.129  -1.423  -0.297  0.00  0.00    +0.053 HD
ENDROOT
BRANCH   1   3
ATOM      3  N   UNL     1      -1.509  -2.010   0.852  0.00  0.00    -0.305 N 
ATOM      4  C   UNL     1      -1.379  -3.432   0.691  0.00  0.00    +0.245 C 
ATOM      5  O   UNL     1      -0.290  -3.928   0.293  0.00  0.00    -0.270 OA
ATOM      6  H   UNL     1      -2.464  -1.632   1.037  0.00  0.00    +0.149 HD
BRANCH   4   7
ATOM      7  C   UNL     1      -2.511  -4.325   1.032  0.00  0.00    +0.047 A 
ATOM      8  C   UNL     1      -3.185  -4.104   2.243  0.00  0.00    -0.031 A 
ATOM      9  C   UNL     1      -4.217  -4.954   2.635  0.00  0.00    +0.029 A 
ATOM     10  N   UNL     1      -4.578  -5.998   1.847  0.00  0.00    -0.255 NA
ATOM     11  C   UNL     1      -3.967  -6.246   0.659  0.00  0.00    +0.072 A 
ATOM     12  C   UNL     1      -4.391  -7.328  -0.120  0.00  0.00    -0.036 A 
ATOM     13  C   UNL     1      -3.795  -7.579  -1.357  0.00  0.00    -0.060 A 
ATOM     14  C   UNL     1      -2.778  -6.745  -1.825  0.00  0.00    -0.061 A 
ATOM     15  C   UNL     1      -2.342  -5.662  -1.056  0.00  0.00    -0.052 A 
ATOM     16  C   UNL     1      -2.916  -5.406   0.208  0.00  0.00    +0.012 A 
ATOM     17  H   UNL     1      -2.897  -3.290   2.898  0.00  0.00    +0.064 HD
ATOM     18  H   UNL     1      -4.728  -4.789   3.574  0.00  0.00    +0.083 HD
ATOM     19  H   UNL     1      -5.189  -7.972   0.228  0.00  0.00    +0.064 HD
ATOM     20  H   UNL     1      -4.128  -8.415  -1.958  0.00  0.00    +0.062 HD
ATOM     21  H   UNL     1      -2.331  -6.935  -2.792  0.00  0.00    +0.062 HD
ATOM     22  H   UNL     1      -1.575  -5.026  -1.472  0.00  0.00    +0.062 HD
ENDBRANCH   4   7
ENDBRANCH   1   3
BRANCH   1  23
ATOM     23  C   UNL     1      -0.867   0.347   0.347  0.00  0.00    +0.019 C 
ATOM     24  H   UNL     1       0.009   1.019   0.270  0.00  0.00    +0.040 HD
ATOM     25  H   UNL     1      -1.370   0.362  -0.644  0.00  0.00    +0.040 HD
BRANCH  23  26
ATOM     26  S   UNL     1      -2.063   0.995   1.579  0.00  0.00    -0.123 S 
BRANCH  26  27
ATOM     27  C   UNL     1      -1.673   2.716   1.257  0.00  0.00    +0.009 A 
ATOM     28  C   UNL     1      -0.786   3.396   2.099  0.00  0.00    -0.048 A 
ATOM     29  C   UNL     1      -0.449   4.727   1.840  0.00  0.00    -0.053 A 
ATOM     30  C   UNL     1      -0.992   5.387   0.728  0.00  0.00    -0.018 A 
ATOM     31  C   UNL     1      -0.641   6.716   0.442  0.00  0.00    -0.054 A 
ATOM     32  C   UNL     1      -1.180   7.359  -0.676  0.00  0.00    -0.061 A 
ATOM     33  C   UNL     1      -2.072   6.684  -1.514  0.00  0.00    -0.061 A 
ATOM     34  C   UNL     1      -2.431   5.361  -1.240  0.00  0.00    -0.054 A 
ATOM     35  C   UNL     1      -1.896   4.703  -0.122  0.00  0.00    -0.017 A 
ATOM     36  C   UNL     1      -2.238   3.371   0.156  0.00  0.00    -0.041 A 
ATOM     37  H   UNL     1      -0.349   2.890   2.950  0.00  0.00    +0.063 HD
ATOM     38  H   UNL     1       0.246   5.234   2.499  0.00  0.00    +0.062 HD
ATOM     39  H   UNL     1       0.051   7.253   1.079  0.00  0.00    +0.062 HD
ATOM     40  H   UNL     1      -0.906   8.383  -0.893  0.00  0.00    +0.062 HD
ATOM     41  H   UNL     1      -2.486   7.187  -2.378  0.00  0.00    +0.062 HD
ATOM     42  H   UNL     1      -3.122   4.852  -1.902  0.00  0.00    +0.062 HD
ATOM     43  H   UNL     1      -2.922   2.834  -0.491  0.00  0.00    +0.063 HD
ENDBRANCH  26  27
ENDBRANCH  23  26
ENDBRANCH   1  23
BRANCH   1  44
ATOM     44  C   UNL     1       0.644  -1.199   1.804  0.00  0.00    +0.078 C 
ATOM     45  H   UNL     1       0.785  -2.276   2.032  0.00  0.00    +0.062 HD
BRANCH  44  46
ATOM     46  C   UNL     1       2.050  -0.638   1.458  0.00  0.00    +0.001 C 
ATOM     47  H   UNL     1       2.678  -0.677   2.375  0.00  0.00    +0.034 HD
ATOM     48  H   UNL     1       1.983   0.434   1.194  0.00  0.00    +0.034 HD
BRANCH  46  54
ATOM     49  C   UNL     1       2.829  -1.022  -0.971  0.00  0.00    +0.040 A 
ATOM     50  C   UNL     1       3.360  -1.891  -1.939  0.00  0.00    -0.049 A 
ATOM     51  C   UNL     1       3.826  -3.156  -1.580  0.00  0.00    -0.061 A 
ATOM     52  C   UNL     1       3.764  -3.571  -0.251  0.00  0.00    -0.061 A 
ATOM     53  C   UNL     1       3.223  -2.729   0.721  0.00  0.00    -0.058 A 
ATOM     54  C   UNL     1       2.739  -1.452   0.379  0.00  0.00    -0.033 A 
ATOM     55  H   UNL     1       3.429  -1.580  -2.975  0.00  0.00    +0.063 HD
ATOM     56  H   UNL     1       4.241  -3.813  -2.333  0.00  0.00    +0.062 HD
ATOM     57  H   UNL     1       4.127  -4.553   0.025  0.00  0.00    +0.062 HD
ATOM     58  H   UNL     1       3.162  -3.081   1.743  0.00  0.00    +0.062 HD
BRANCH  49  60
ATOM     59  N   UNL     1       3.057   1.492  -0.906  0.00  0.00    -0.307 N 
ATOM     60  C   UNL     1       2.396   0.317  -1.411  0.00  0.00    +0.245 C 
ATOM     61  O   UNL     1       1.490   0.409  -2.282  0.00  0.00    -0.270 OA
ATOM     62  H   UNL     1       3.806   1.333  -0.192  0.00  0.00    +0.150 HD
BRANCH  59  63
ATOM     63  C   UNL     1       2.811   2.871  -1.371  0.00  0.00    +0.026 C 
BRANCH  63  64
ATOM     64  C   UNL     1       3.746   3.832  -0.609  0.00  0.00    -0.044 C 
ATOM     65  H   UNL     1       3.584   4.884  -0.929  0.00  0.00    +0.025 HD
ATOM     66  H   UNL     1       4.810   3.569  -0.796  0.00  0.00    +0.025 HD
ATOM     67  H   UNL     1       3.560   3.768   0.485  0.00  0.00    +0.025 HD
ENDBRANCH  63  64
BRANCH  63  68
ATOM     68  C   UNL     1       3.111   2.989  -2.878  0.00  0.00    -0.044 C 
ATOM     69  H   UNL     1       3.036   4.047  -3.210  0.00  0.00    +0.025 HD
ATOM     70  H   UNL     1       4.137   2.623  -3.095  0.00  0.00    +0.025 HD
ATOM     71  H   UNL     1       2.394   2.398  -3.483  0.00  0.00    +0.025 HD
ENDBRANCH  63  68
BRANCH  63  72
ATOM     72  C   UNL     1       1.355   3.281  -1.083  0.00  0.00    -0.044 C 
ATOM     73  H   UNL     1       1.138   3.153  -0.003  0.00  0.00    +0.025 HD
ATOM     74  H   UNL     1       1.186   4.346  -1.351  0.00  0.00    +0.025 HD
ATOM     75  H   UNL     1       0.634   2.671  -1.662  0.00  0.00    +0.025 HD
ENDBRANCH  63  72
ENDBRANCH  59  63
ENDBRANCH  49  60
ENDBRANCH  46  54
ENDBRANCH  44  46
BRANCH  44  76
ATOM     76  O   UNL     1       0.138  -0.618   2.981  0.00  0.00    -0.390 OA
ATOM     77  H   UNL     1       0.329   0.355   2.952  0.00  0.00    +0.210 HD
ENDBRANCH  44  76
ENDBRANCH   1  44
TORSDOF 14
