REMARK  Name = 
REMARK  21 active torsions:
REMARK  status: ('A' for Active; 'I' for Inactive)
REMARK    1  A    between atoms: C_1  and  C_2
REMARK    2  A    between atoms: C_2  and  C_3
REMARK    3  A    between atoms: C_2  and  C_4
REMARK    4  A    between atoms: C_4  and  C_5
REMARK    5  A    between atoms: C_4  and  C_6
REMARK    6  A    between atoms: C_9  and  C_11
REMARK    7  A    between atoms: C_11  and  O_12
REMARK    8  A    between atoms: C_11  and  C_13
REMARK    9  A    between atoms: C_13  and  O_14
REMARK   10  A    between atoms: C_13  and  C_15
REMARK   11  A    between atoms: C_15  and  O_16
REMARK   12  A    between atoms: C_15  and  C_17
REMARK   13  A    between atoms: C_17  and  O_18
REMARK   14  A    between atoms: C_17  and  C_31
REMARK   15  A    between atoms: O_18  and  C_19
REMARK   16  A    between atoms: C_22  and  C_23
REMARK   17  A    between atoms: C_34  and  C_36
REMARK   18  A    between atoms: C_36  and  C_37
REMARK   19  A    between atoms: C_36  and  C_38
REMARK   20  A    between atoms: C_38  and  C_39
REMARK   21  A    between atoms: C_38  and  C_40
REMARK                            x       y       z     vdW  Elec       q    Type
REMARK                         _______ _______ _______ _____ _____    ______ ____
ROOT
ATOM      1  C   UNL     1      -1.319  -0.855  -0.451  0.00  0.00    +0.204 C 
ATOM      2  H   UNL     1      -2.108  -0.840   0.326  0.00  0.00    +0.086 HD
ENDROOT
BRANCH   1   3
ATOM      3  C   UNL     1      -1.690  -1.923  -1.447  0.00  0.00    +0.263 C 
ATOM      4  O   UNL     1      -1.164  -1.908  -2.593  0.00  0.00    -0.271 OA
ATOM      5  N   UNL     1      -2.592  -2.977  -1.070  0.00  0.00    -0.253 N 
ATOM      6  C   UNL     1      -3.038  -4.009  -1.969  0.00  0.00    +0.222 C 
ATOM      7  O   UNL     1      -2.739  -3.955  -3.193  0.00  0.00    -0.275 OA
ATOM      8  H   UNL     1      -2.942  -2.984  -0.087  0.00  0.00    +0.158 HD
BRANCH   6   9
ATOM      9  C   UNL     1      -3.913  -5.148  -1.489  0.00  0.00    +0.035 C 
ATOM     10  H   UNL     1      -3.755  -5.983  -2.210  0.00  0.00    +0.039 HD
BRANCH   9  11
ATOM     11  C   UNL     1      -3.451  -5.692  -0.124  0.00  0.00    -0.054 C 
ATOM     12  H   UNL     1      -2.354  -5.871  -0.139  0.00  0.00    +0.024 HD
ATOM     13  H   UNL     1      -3.942  -6.664   0.090  0.00  0.00    +0.024 HD
ATOM     14  H   UNL     1      -3.680  -4.994   0.705  0.00  0.00    +0.024 HD
ENDBRANCH   9  11
BRANCH   9  15
ATOM     15  C   UNL     1      -5.424  -4.777  -1.557  0.00  0.00    -0.036 C 
ATOM     16  H   UNL     1      -5.633  -4.439  -2.597  0.00  0.00    +0.030 HD
BRANCH  15  17
ATOM     17  C   UNL     1      -6.323  -5.997  -1.307  0.00  0.00    -0.062 C 
ATOM     18  H   UNL     1      -6.027  -6.840  -1.966  0.00  0.00    +0.023 HD
ATOM     19  H   UNL     1      -7.381  -5.742  -1.533  0.00  0.00    +0.023 HD
ATOM     20  H   UNL     1      -6.264  -6.326  -0.248  0.00  0.00    +0.023 HD
ENDBRANCH  15  17
BRANCH  15  21
ATOM     21  C   UNL     1      -5.827  -3.623  -0.623  0.00  0.00    -0.062 C 
ATOM     22  H   UNL     1      -5.668  -3.889   0.443  0.00  0.00    +0.023 HD
ATOM     23  H   UNL     1      -6.904  -3.386  -0.760  0.00  0.00    +0.023 HD
ATOM     24  H   UNL     1      -5.257  -2.703  -0.864  0.00  0.00    +0.023 HD
ENDBRANCH  15  21
ENDBRANCH   9  15
ENDBRANCH   6   9
ENDBRANCH   1   3
BRANCH   1  25
ATOM     25  C   UNL     1       0.056  -1.192   0.188  0.00  0.00    +0.129 C 
ATOM     26  H   UNL     1       0.809  -1.149  -0.628  0.00  0.00    +0.066 HD
BRANCH  25  27
ATOM     27  O   UNL     1       0.066  -2.507   0.693  0.00  0.00    -0.385 OA
ATOM     28  H   UNL     1      -0.723  -2.614   1.286  0.00  0.00    +0.210 HD
ENDBRANCH  25  27
BRANCH  25  29
ATOM     29  C   UNL     1       0.480  -0.173   1.286  0.00  0.00    +0.119 C 
ATOM     30  H   UNL     1       0.333   0.850   0.885  0.00  0.00    +0.065 HD
BRANCH  29  31
ATOM     31  O   UNL     1      -0.350  -0.275   2.418  0.00  0.00    -0.386 OA
ATOM     32  H   UNL     1      -0.091  -1.090   2.920  0.00  0.00    +0.210 HD
ENDBRANCH  29  31
BRANCH  29  33
ATOM     33  C   UNL     1       1.983  -0.259   1.689  0.00  0.00    +0.159 C 
ATOM     34  H   UNL     1       2.134   0.454   2.528  0.00  0.00    +0.072 HD
BRANCH  33  38
ATOM     35  C   UNL     1       5.315   0.186  -0.298  0.00  0.00    +0.222 C 
ATOM     36  O   UNL     1       4.959   0.689  -1.399  0.00  0.00    -0.275 OA
ATOM     37  N   UNL     1       4.342  -0.113   0.717  0.00  0.00    -0.254 N 
ATOM     38  C   UNL     1       2.940   0.179   0.594  0.00  0.00    +0.250 C 
ATOM     39  O   UNL     1       2.517   0.862  -0.380  0.00  0.00    -0.272 OA
ATOM     40  H   UNL     1       4.672  -0.564   1.599  0.00  0.00    +0.158 HD
BRANCH  35  41
ATOM     41  C   UNL     1       6.781  -0.090  -0.048  0.00  0.00    +0.035 C 
ATOM     42  H   UNL     1       6.890  -0.590   0.940  0.00  0.00    +0.039 HD
BRANCH  41  43
ATOM     43  C   UNL     1       7.289  -1.075  -1.113  0.00  0.00    -0.054 C 
ATOM     44  H   UNL     1       7.360  -0.581  -2.106  0.00  0.00    +0.024 HD
ATOM     45  H   UNL     1       6.599  -1.944  -1.195  0.00  0.00    +0.024 HD
ATOM     46  H   UNL     1       8.285  -1.476  -0.833  0.00  0.00    +0.024 HD
ENDBRANCH  41  43
BRANCH  41  47
ATOM     47  C   UNL     1       7.600   1.236  -0.019  0.00  0.00    -0.036 C 
ATOM     48  H   UNL     1       7.492   1.751  -1.000  0.00  0.00    +0.030 HD
BRANCH  47  49
ATOM     49  C   UNL     1       9.099   0.981   0.214  0.00  0.00    -0.062 C 
ATOM     50  H   UNL     1       9.256   0.368   1.128  0.00  0.00    +0.023 HD
ATOM     51  H   UNL     1       9.549   0.462  -0.657  0.00  0.00    +0.023 HD
ATOM     52  H   UNL     1       9.643   1.943   0.332  0.00  0.00    +0.023 HD
ENDBRANCH  47  49
BRANCH  47  53
ATOM     53  C   UNL     1       7.077   2.187   1.073  0.00  0.00    -0.062 C 
ATOM     54  H   UNL     1       7.681   3.119   1.095  0.00  0.00    +0.023 HD
ATOM     55  H   UNL     1       7.130   1.702   2.071  0.00  0.00    +0.023 HD
ATOM     56  H   UNL     1       6.026   2.481   0.871  0.00  0.00    +0.023 HD
ENDBRANCH  47  53
ENDBRANCH  41  47
ENDBRANCH  35  41
ENDBRANCH  33  38
BRANCH  33  57
ATOM     57  O   UNL     1       2.310  -1.540   2.171  0.00  0.00    -0.380 OA
ATOM     58  H   UNL     1       2.458  -2.134   1.389  0.00  0.00    +0.211 HD
ENDBRANCH  33  57
ENDBRANCH  29  33
ENDBRANCH  25  29
ENDBRANCH   1  25
BRANCH   1  59
ATOM     59  O   UNL     1      -1.258   0.395  -1.150  0.00  0.00    -0.477 OA
BRANCH  59  60
ATOM     60  C   UNL     1      -1.702   1.650  -0.695  0.00  0.00    +0.122 A 
ATOM     61  C   UNL     1      -2.291   1.857   0.568  0.00  0.00    -0.019 A 
ATOM     62  C   UNL     1      -2.707   3.135   0.953  0.00  0.00    -0.049 A 
ATOM     63  C   UNL     1      -2.550   4.232   0.086  0.00  0.00    +0.001 A 
ATOM     64  C   UNL     1      -1.951   4.021  -1.167  0.00  0.00    -0.049 A 
ATOM     65  C   UNL     1      -1.537   2.744  -1.551  0.00  0.00    -0.019 A 
ATOM     66  H   UNL     1      -2.423   1.054   1.275  0.00  0.00    +0.065 HD
ATOM     67  H   UNL     1      -3.125   3.263   1.942  0.00  0.00    +0.063 HD
ATOM     68  H   UNL     1      -1.813   4.844  -1.858  0.00  0.00    +0.063 HD
ATOM     69  H   UNL     1      -1.083   2.602  -2.523  0.00  0.00    +0.065 HD
BRANCH  63  70
ATOM     70  C   UNL     1      -2.977   5.600   0.481  0.00  0.00    +0.071 A 
ATOM     71  C   UNL     1      -4.046   5.813   1.372  0.00  0.00    -0.036 A 
ATOM     72  C   UNL     1      -4.411   7.118   1.709  0.00  0.00    -0.058 A 
ATOM     73  C   UNL     1      -3.721   8.198   1.159  0.00  0.00    -0.044 A 
ATOM     74  C   UNL     1      -2.673   7.956   0.271  0.00  0.00    +0.028 A 
ATOM     75  N   UNL     1      -2.331   6.679  -0.045  0.00  0.00    -0.255 NA
ATOM     76  H   UNL     1      -4.611   4.989   1.786  0.00  0.00    +0.064 HD
ATOM     77  H   UNL     1      -5.234   7.292   2.391  0.00  0.00    +0.062 HD
ATOM     78  H   UNL     1      -3.999   9.213   1.414  0.00  0.00    +0.063 HD
ATOM     79  H   UNL     1      -2.132   8.783  -0.168  0.00  0.00    +0.083 HD
ENDBRANCH  63  70
ENDBRANCH  59  60
ENDBRANCH   1  59
TORSDOF 21
