REMARK  Name = 
REMARK  18 active torsions:
REMARK  status: ('A' for Active; 'I' for Inactive)
REMARK    1  A    between atoms: C_1  and  C_2
REMARK    2  A    between atoms: C_2  and  C_3
REMARK    3  A    between atoms: C_2  and  C_4
REMARK    4  A    between atoms: C_4  and  N_5
REMARK    5  A    between atoms: C_4  and  C_41
REMARK    6  A    between atoms: C_6  and  C_8
REMARK    7  A    between atoms: C_8  and  C_9
REMARK    8  A    between atoms: C_11  and  C_12
REMARK    9  A    between atoms: C_12  and  C_13
REMARK   10  A    between atoms: C_12  and  N_20
REMARK   11  A    between atoms: C_13  and  C_14
REMARK   12  A    between atoms: C_21  and  C_23
REMARK   13  A    between atoms: C_23  and  C_24
REMARK   14  A    between atoms: C_23  and  N_28
REMARK   15  A    between atoms: C_24  and  C_25
REMARK   16  A    between atoms: C_29  and  C_31
REMARK   17  A    between atoms: C_41  and  C_42
REMARK   18  A    between atoms: C_41  and  C_43
REMARK                            x       y       z     vdW  Elec       q    Type
REMARK                         _______ _______ _______ _____ _____    ______ ____
ROOT
ATOM      1  C   UNL     1      -0.379   0.081   1.647  0.00  0.00    +0.056 C 
ATOM      2  H   UNL     1      -0.379   0.791   0.795  0.00  0.00    +0.053 HD
ENDROOT
BRANCH   1   5
ATOM      3  C   UNL     1      -1.792   1.875   3.004  0.00  0.00    +0.095 C 
ATOM      4  O   UNL     1      -0.423   2.190   2.869  0.00  0.00    -0.366 OA
ATOM      5  C   UNL     1      -0.739   0.818   2.950  0.00  0.00    +0.104 C 
ATOM      6  H   UNL     1      -2.163   2.169   4.008  0.00  0.00    +0.063 HD
ATOM      7  H   UNL     1      -0.431   0.383   3.925  0.00  0.00    +0.064 HD
BRANCH   3   8
ATOM      8  C   UNL     1      -2.586   2.323   1.765  0.00  0.00    +0.053 C 
ATOM      9  H   UNL     1      -2.059   2.120   0.815  0.00  0.00    +0.038 HD
ATOM     10  H   UNL     1      -2.715   3.424   1.822  0.00  0.00    +0.038 HD
BRANCH   8  12
ATOM     11  N   UNL     1      -4.527   1.265   0.498  0.00  0.00    -0.312 N 
ATOM     12  C   UNL     1      -3.953   1.700   1.742  0.00  0.00    +0.216 C 
ATOM     13  O   UNL     1      -4.623   1.628   2.809  0.00  0.00    -0.276 OA
ATOM     14  H   UNL     1      -3.941   1.323  -0.364  0.00  0.00    +0.149 HD
BRANCH  11  15
ATOM     15  C   UNL     1      -5.919   0.802   0.386  0.00  0.00    +0.028 C 
ATOM     16  H   UNL     1      -6.508   1.386   1.129  0.00  0.00    +0.050 HD
BRANCH  15  17
ATOM     17  C   UNL     1      -6.020  -0.692   0.844  0.00  0.00    -0.028 C 
ATOM     18  H   UNL     1      -5.664  -0.700   1.899  0.00  0.00    +0.031 HD
BRANCH  17  19
ATOM     19  C   UNL     1      -7.455  -1.227   0.895  0.00  0.00    -0.061 C 
ATOM     20  H   UNL     1      -7.828  -1.471  -0.120  0.00  0.00    +0.023 HD
ATOM     21  H   UNL     1      -8.132  -0.489   1.376  0.00  0.00    +0.023 HD
ATOM     22  H   UNL     1      -7.485  -2.161   1.497  0.00  0.00    +0.023 HD
ENDBRANCH  17  19
BRANCH  17  23
ATOM     23  C   UNL     1      -5.101  -1.673   0.093  0.00  0.00    -0.061 C 
ATOM     24  H   UNL     1      -4.132  -1.206  -0.161  0.00  0.00    +0.023 HD
ATOM     25  H   UNL     1      -5.566  -2.054  -0.837  0.00  0.00    +0.023 HD
ATOM     26  H   UNL     1      -4.894  -2.555   0.737  0.00  0.00    +0.023 HD
ENDBRANCH  17  23
ENDBRANCH  15  17
BRANCH  15  27
ATOM     27  C   UNL     1      -6.502   1.212  -1.011  0.00  0.00    -0.028 C 
ATOM     28  H   UNL     1      -6.073   2.214  -1.240  0.00  0.00    +0.031 HD
BRANCH  27  29
ATOM     29  C   UNL     1      -8.024   1.434  -0.999  0.00  0.00    -0.061 C 
ATOM     30  H   UNL     1      -8.320   2.086  -0.151  0.00  0.00    +0.023 HD
ATOM     31  H   UNL     1      -8.335   1.941  -1.938  0.00  0.00    +0.023 HD
ATOM     32  H   UNL     1      -8.584   0.482  -0.935  0.00  0.00    +0.023 HD
ENDBRANCH  27  29
BRANCH  27  33
ATOM     33  C   UNL     1      -6.098   0.304  -2.180  0.00  0.00    -0.061 C 
ATOM     34  H   UNL     1      -6.313   0.818  -3.141  0.00  0.00    +0.023 HD
ATOM     35  H   UNL     1      -6.681  -0.638  -2.171  0.00  0.00    +0.023 HD
ATOM     36  H   UNL     1      -5.011   0.082  -2.154  0.00  0.00    +0.023 HD
ENDBRANCH  27  33
ENDBRANCH  15  27
ENDBRANCH  11  15
ENDBRANCH   8  12
ENDBRANCH   3   8
ENDBRANCH   1   5
BRANCH   1  37
ATOM     37  N   UNL     1       0.961  -0.499   1.785  0.00  0.00    -0.308 N 
ATOM     38  C   UNL     1       1.928  -0.489   0.723  0.00  0.00    +0.234 C 
ATOM     39  O   UNL     1       1.663   0.070  -0.377  0.00  0.00    -0.274 OA
ATOM     40  H   UNL     1       1.170  -1.064   2.639  0.00  0.00    +0.149 HD
BRANCH  38  41
ATOM     41  C   UNL     1       3.244  -1.200   0.896  0.00  0.00    +0.108 C 
ATOM     42  H   UNL     1       3.464  -1.303   1.983  0.00  0.00    +0.060 HD
BRANCH  41  43
ATOM     43  N   UNL     1       4.317  -0.422   0.265  0.00  0.00    -0.298 N 
ATOM     44  C   UNL     1       4.841   0.774   0.864  0.00  0.00    +0.263 C 
ATOM     45  O   UNL     1       4.386   1.170   1.972  0.00  0.00    -0.269 OA
ATOM     46  H   UNL     1       4.678  -0.724  -0.669  0.00  0.00    +0.150 HD
BRANCH  44  47
ATOM     47  C   UNL     1       5.909   1.546   0.191  0.00  0.00    +0.126 A 
ATOM     48  C   UNL     1       6.420   2.725   0.763  0.00  0.00    -0.031 A 
ATOM     49  C   UNL     1       7.428   3.433   0.105  0.00  0.00    -0.050 A 
ATOM     50  C   UNL     1       7.924   2.968  -1.117  0.00  0.00    +0.000 A 
ATOM     51  C   UNL     1       8.936   3.655  -1.804  0.00  0.00    -0.053 A 
ATOM     52  C   UNL     1       9.409   3.162  -3.025  0.00  0.00    -0.061 A 
ATOM     53  C   UNL     1       8.877   1.986  -3.564  0.00  0.00    -0.060 A 
ATOM     54  C   UNL     1       7.868   1.295  -2.885  0.00  0.00    -0.036 A 
ATOM     55  C   UNL     1       7.388   1.781  -1.663  0.00  0.00    +0.072 A 
ATOM     56  N   UNL     1       6.407   1.112  -1.000  0.00  0.00    -0.242 NA
ATOM     57  H   UNL     1       6.045   3.095   1.708  0.00  0.00    +0.064 HD
ATOM     58  H   UNL     1       7.818   4.341   0.551  0.00  0.00    +0.062 HD
ATOM     59  H   UNL     1       9.358   4.567  -1.400  0.00  0.00    +0.062 HD
ATOM     60  H   UNL     1      10.190   3.693  -3.554  0.00  0.00    +0.062 HD
ATOM     61  H   UNL     1       9.247   1.609  -4.508  0.00  0.00    +0.062 HD
ATOM     62  H   UNL     1       7.462   0.385  -3.309  0.00  0.00    +0.064 HD
ENDBRANCH  44  47
ENDBRANCH  41  43
BRANCH  41  63
ATOM     63  C   UNL     1       3.152  -2.610   0.290  0.00  0.00    +0.051 C 
ATOM     64  H   UNL     1       2.307  -3.161   0.756  0.00  0.00    +0.038 HD
ATOM     65  H   UNL     1       2.949  -2.546  -0.802  0.00  0.00    +0.038 HD
BRANCH  63  66
ATOM     66  C   UNL     1       4.412  -3.389   0.529  0.00  0.00    +0.213 C 
ATOM     67  N   UNL     1       4.664  -3.982   1.803  0.00  0.00    -0.329 N 
ATOM     68  O   UNL     1       5.267  -3.498  -0.391  0.00  0.00    -0.276 OA
ATOM     69  H   UNL     1       5.547  -4.513   1.972  0.00  0.00    +0.145 HD
ATOM     70  H   UNL     1       3.971  -3.889   2.579  0.00  0.00    +0.145 HD
ENDBRANCH  63  66
ENDBRANCH  41  63
ENDBRANCH  38  41
ENDBRANCH   1  37
BRANCH   1  71
ATOM     71  C   UNL     1      -1.402  -1.036   1.383  0.00  0.00    -0.007 C 
ATOM     72  H   UNL     1      -1.370  -1.776   2.212  0.00  0.00    +0.033 HD
ATOM     73  H   UNL     1      -2.425  -0.611   1.376  0.00  0.00    +0.033 HD
BRANCH  71  74
ATOM     74  C   UNL     1      -1.148  -1.713   0.061  0.00  0.00    -0.046 A 
ATOM     75  C   UNL     1      -0.538  -2.978   0.015  0.00  0.00    -0.059 A 
ATOM     76  C   UNL     1      -0.264  -3.583  -1.215  0.00  0.00    -0.062 A 
ATOM     77  C   UNL     1      -0.597  -2.932  -2.406  0.00  0.00    -0.062 A 
ATOM     78  C   UNL     1      -1.203  -1.673  -2.369  0.00  0.00    -0.062 A 
ATOM     79  C   UNL     1      -1.474  -1.062  -1.141  0.00  0.00    -0.059 A 
ATOM     80  H   UNL     1      -0.267  -3.490   0.929  0.00  0.00    +0.062 HD
ATOM     81  H   UNL     1       0.210  -4.555  -1.245  0.00  0.00    +0.062 HD
ATOM     82  H   UNL     1      -0.384  -3.402  -3.357  0.00  0.00    +0.062 HD
ATOM     83  H   UNL     1      -1.458  -1.168  -3.292  0.00  0.00    +0.062 HD
ATOM     84  H   UNL     1      -1.933  -0.082  -1.126  0.00  0.00    +0.062 HD
ENDBRANCH  71  74
ENDBRANCH   1  71
TORSDOF 18
