REMARK  Name = 
REMARK  11 active torsions:
REMARK  status: ('A' for Active; 'I' for Inactive)
REMARK    1  A    between atoms: O_1  and  C_2
REMARK    2  A    between atoms: C_3  and  O_4
REMARK    3  A    between atoms: C_5  and  C_6
REMARK    4  A    between atoms: C_6  and  C_7
REMARK    5  A    between atoms: N_13  and  C_14
REMARK    6  A    between atoms: C_14  and  C_15
REMARK    7  A    between atoms: N_22  and  C_23
REMARK    8  A    between atoms: N_25  and  C_26
REMARK    9  A    between atoms: C_26  and  C_27
REMARK   10  A    between atoms: C_33  and  C_34
REMARK   11  A    between atoms: C_34  and  C_35
REMARK                            x       y       z     vdW  Elec       q    Type
REMARK                         _______ _______ _______ _____ _____    ______ ____
ROOT
ATOM      1  C   UNL     1      -0.797  -1.116   0.946  0.00  0.00    +0.102 C 
ATOM      2  C   UNL     1       0.570  -0.899   1.658  0.00  0.00    +0.102 C 
ATOM      3  C   UNL     1       1.139   0.544   1.576  0.00  0.00    +0.058 C 
ATOM      4  N   UNL     1       1.304   0.975   0.167  0.00  0.00    -0.296 N 
ATOM      5  C   UNL     1       0.128   1.515  -0.466  0.00  0.00    +0.197 C 
ATOM      6  N   UNL     1      -0.014   2.804  -0.601  0.00  0.00    -0.142 NA
ATOM      7  N   UNL     1      -0.946   0.627  -0.867  0.00  0.00    -0.296 N 
ATOM      8  C   UNL     1      -0.784  -0.827  -0.590  0.00  0.00    +0.058 C 
ATOM      9  H   UNL     1      -1.006  -2.195   1.093  0.00  0.00    +0.064 HD
ATOM     10  H   UNL     1       0.392  -1.122   2.736  0.00  0.00    +0.064 HD
ATOM     11  H   UNL     1       0.403   1.228   2.053  0.00  0.00    +0.053 HD
ATOM     12  H   UNL     1       0.208  -1.125  -0.977  0.00  0.00    +0.053 HD
ENDROOT
BRANCH   4  13
ATOM     13  C   UNL     1       2.600   1.060  -0.551  0.00  0.00    +0.018 C 
ATOM     14  H   UNL     1       3.446   1.125   0.157  0.00  0.00    +0.047 HD
ATOM     15  H   UNL     1       2.658   2.002  -1.137  0.00  0.00    +0.047 HD
BRANCH  13  16
ATOM     16  C   UNL     1       2.835  -0.135  -1.506  0.00  0.00    -0.025 C 
ATOM     17  C   UNL     1       2.035   0.001  -2.836  0.00  0.00    -0.049 C 
ATOM     18  C   UNL     1       2.905   0.506  -3.993  0.00  0.00    -0.053 C 
ATOM     19  C   UNL     1       4.080  -0.449  -4.279  0.00  0.00    -0.053 C 
ATOM     20  C   UNL     1       4.613  -1.155  -3.016  0.00  0.00    -0.053 C 
ATOM     21  C   UNL     1       4.354  -0.327  -1.755  0.00  0.00    -0.049 C 
ATOM     22  H   UNL     1       2.488  -1.058  -0.998  0.00  0.00    +0.032 HD
ATOM     23  H   UNL     1       1.167   0.680  -2.728  0.00  0.00    +0.027 HD
ATOM     24  H   UNL     1       1.626  -0.993  -3.119  0.00  0.00    +0.027 HD
ATOM     25  H   UNL     1       2.283   0.612  -4.909  0.00  0.00    +0.027 HD
ATOM     26  H   UNL     1       3.297   1.515  -3.736  0.00  0.00    +0.027 HD
ATOM     27  H   UNL     1       4.901   0.133  -4.752  0.00  0.00    +0.027 HD
ATOM     28  H   UNL     1       3.757  -1.221  -5.010  0.00  0.00    +0.027 HD
ATOM     29  H   UNL     1       5.704  -1.337  -3.125  0.00  0.00    +0.027 HD
ATOM     30  H   UNL     1       4.116  -2.145  -2.906  0.00  0.00    +0.027 HD
ATOM     31  H   UNL     1       4.858   0.659  -1.870  0.00  0.00    +0.027 HD
ATOM     32  H   UNL     1       4.812  -0.837  -0.879  0.00  0.00    +0.027 HD
ENDBRANCH  13  16
ENDBRANCH   4  13
BRANCH   3  33
ATOM     33  C   UNL     1       2.430   0.703   2.420  0.00  0.00    -0.006 C 
ATOM     34  H   UNL     1       2.842   1.725   2.267  0.00  0.00    +0.033 HD
ATOM     35  H   UNL     1       3.203  -0.024   2.088  0.00  0.00    +0.033 HD
BRANCH  33  36
ATOM     36  C   UNL     1       2.173   0.531   3.898  0.00  0.00    -0.046 A 
ATOM     37  C   UNL     1       1.573   1.565   4.636  0.00  0.00    -0.059 A 
ATOM     38  C   UNL     1       1.313   1.399   6.000  0.00  0.00    -0.062 A 
ATOM     39  C   UNL     1       1.647   0.201   6.636  0.00  0.00    -0.062 A 
ATOM     40  C   UNL     1       2.242  -0.834   5.908  0.00  0.00    -0.062 A 
ATOM     41  C   UNL     1       2.504  -0.672   4.545  0.00  0.00    -0.059 A 
ATOM     42  H   UNL     1       1.304   2.498   4.154  0.00  0.00    +0.062 HD
ATOM     43  H   UNL     1       0.850   2.199   6.563  0.00  0.00    +0.062 HD
ATOM     44  H   UNL     1       1.445   0.073   7.691  0.00  0.00    +0.062 HD
ATOM     45  H   UNL     1       2.497  -1.763   6.401  0.00  0.00    +0.062 HD
ATOM     46  H   UNL     1       2.957  -1.486   3.992  0.00  0.00    +0.062 HD
ENDBRANCH  33  36
ENDBRANCH   3  33
BRANCH   7  47
ATOM     47  C   UNL     1      -2.080   1.212  -1.625  0.00  0.00    +0.018 C 
ATOM     48  H   UNL     1      -2.656   0.468  -2.203  0.00  0.00    +0.047 HD
ATOM     49  H   UNL     1      -1.659   1.883  -2.407  0.00  0.00    +0.047 HD
BRANCH  47  50
ATOM     50  C   UNL     1      -3.047   2.000  -0.703  0.00  0.00    -0.025 C 
ATOM     51  C   UNL     1      -3.598   3.260  -1.421  0.00  0.00    -0.049 C 
ATOM     52  C   UNL     1      -4.919   3.788  -0.820  0.00  0.00    -0.053 C 
ATOM     53  C   UNL     1      -5.086   3.387   0.649  0.00  0.00    -0.053 C 
ATOM     54  C   UNL     1      -5.085   1.855   0.823  0.00  0.00    -0.053 C 
ATOM     55  C   UNL     1      -4.216   1.120  -0.219  0.00  0.00    -0.049 C 
ATOM     56  H   UNL     1      -2.490   2.345   0.195  0.00  0.00    +0.032 HD
ATOM     57  H   UNL     1      -3.776   3.042  -2.498  0.00  0.00    +0.027 HD
ATOM     58  H   UNL     1      -2.826   4.060  -1.370  0.00  0.00    +0.027 HD
ATOM     59  H   UNL     1      -4.951   4.896  -0.909  0.00  0.00    +0.027 HD
ATOM     60  H   UNL     1      -5.777   3.382  -1.400  0.00  0.00    +0.027 HD
ATOM     61  H   UNL     1      -4.255   3.830   1.240  0.00  0.00    +0.027 HD
ATOM     62  H   UNL     1      -6.037   3.805   1.043  0.00  0.00    +0.027 HD
ATOM     63  H   UNL     1      -6.127   1.475   0.751  0.00  0.00    +0.027 HD
ATOM     64  H   UNL     1      -4.715   1.616   1.845  0.00  0.00    +0.027 HD
ATOM     65  H   UNL     1      -3.843   0.178   0.227  0.00  0.00    +0.027 HD
ATOM     66  H   UNL     1      -4.850   0.842  -1.091  0.00  0.00    +0.027 HD
ENDBRANCH  47  50
ENDBRANCH   7  47
BRANCH   8  67
ATOM     67  C   UNL     1      -1.780  -1.733  -1.365  0.00  0.00    -0.006 C 
ATOM     68  H   UNL     1      -2.817  -1.550  -1.012  0.00  0.00    +0.033 HD
ATOM     69  H   UNL     1      -1.734  -1.486  -2.448  0.00  0.00    +0.033 HD
BRANCH  67  70
ATOM     70  C   UNL     1      -1.444  -3.202  -1.252  0.00  0.00    -0.046 A 
ATOM     71  C   UNL     1      -2.251  -4.062  -0.486  0.00  0.00    -0.059 A 
ATOM     72  C   UNL     1      -1.924  -5.417  -0.368  0.00  0.00    -0.062 A 
ATOM     73  C   UNL     1      -0.793  -5.923  -1.014  0.00  0.00    -0.062 A 
ATOM     74  C   UNL     1       0.013  -5.077  -1.780  0.00  0.00    -0.062 A 
ATOM     75  C   UNL     1      -0.310  -3.722  -1.901  0.00  0.00    -0.059 A 
ATOM     76  H   UNL     1      -3.126  -3.683   0.026  0.00  0.00    +0.062 HD
ATOM     77  H   UNL     1      -2.546  -6.074   0.225  0.00  0.00    +0.062 HD
ATOM     78  H   UNL     1      -0.541  -6.972  -0.921  0.00  0.00    +0.062 HD
ATOM     79  H   UNL     1       0.888  -5.471  -2.281  0.00  0.00    +0.062 HD
ATOM     80  H   UNL     1       0.322  -3.079  -2.500  0.00  0.00    +0.062 HD
ENDBRANCH  67  70
ENDBRANCH   8  67
BRANCH   6  81
ATOM     81  C   UNL     1       0.917   3.750  -0.144  0.00  0.00    +0.208 C 
ATOM     82  N   UNL     1       1.684   4.530   0.233  0.00  0.00    -0.169 NA
ENDBRANCH   6  81
BRANCH   2  83
ATOM     83  O   UNL     1       1.519  -1.810   1.163  0.00  0.00    -0.387 OA
ATOM     84  H   UNL     1       1.302  -2.699   1.548  0.00  0.00    +0.210 HD
ENDBRANCH   2  83
BRANCH   1  85
ATOM     85  O   UNL     1      -1.841  -0.446   1.607  0.00  0.00    -0.387 OA
ATOM     86  H   UNL     1      -1.654   0.524   1.586  0.00  0.00    +0.210 HD
ENDBRANCH   1  85
TORSDOF 11
