REMARK  Name = 
REMARK  16 active torsions:
REMARK  status: ('A' for Active; 'I' for Inactive)
REMARK    1  A    between atoms: C_1  and  C_2
REMARK    2  A    between atoms: C_2  and  C_3
REMARK    3  A    between atoms: C_2  and  C_4
REMARK    4  A    between atoms: C_4  and  C_5
REMARK    5  A    between atoms: C_5  and  C_6
REMARK    6  A    between atoms: C_6  and  C_7
REMARK    7  A    between atoms: C_19  and  S_20
REMARK    8  A    between atoms: S_20  and  C_21
REMARK    9  A    between atoms: C_23  and  C_24
REMARK   10  A    between atoms: C_25  and  C_26
REMARK   11  A    between atoms: C_26  and  O_27
REMARK   12  A    between atoms: C_29  and  C_30
REMARK   13  A    between atoms: C_30  and  C_31
REMARK   14  A    between atoms: C_30  and  C_32
REMARK   15  A    between atoms: C_30  and  C_33
REMARK   16  A    between atoms: C_34  and  O_35
REMARK                            x       y       z     vdW  Elec       q    Type
REMARK                         _______ _______ _______ _____ _____    ______ ____
ROOT
ATOM      1  C   UNL     1       1.103   0.665  -1.009  0.00  0.00    +0.123 C 
ATOM      2  C   UNL     1       0.823  -0.389  -2.120  0.00  0.00    +0.051 C 
ATOM      3  C   UNL     1      -0.621  -0.370  -2.537  0.00  0.00    +0.180 C 
ATOM      4  O   UNL     1      -1.115  -1.379  -3.102  0.00  0.00    -0.291 OA
ATOM      5  C   UNL     1      -1.415   0.865  -2.388  0.00  0.00    +0.135 C 
ATOM      6  C   UNL     1      -0.800   1.972  -1.949  0.00  0.00    +0.297 C 
ATOM      7  O   UNL     1       0.508   1.898  -1.447  0.00  0.00    -0.456 OA
ATOM      8  H   UNL     1       1.103  -1.412  -1.794  0.00  0.00    +0.038 HD
ATOM      9  H   UNL     1       1.422  -0.143  -3.023  0.00  0.00    +0.038 HD
ENDROOT
BRANCH   1  10
ATOM     10  C   UNL     1       2.637   0.941  -0.863  0.00  0.00    -0.006 C 
ATOM     11  H   UNL     1       2.845   1.401   0.125  0.00  0.00    +0.031 HD
ATOM     12  H   UNL     1       2.929   1.706  -1.617  0.00  0.00    +0.031 HD
BRANCH  10  13
ATOM     13  C   UNL     1       3.575  -0.266  -1.071  0.00  0.00    -0.000 C 
ATOM     14  H   UNL     1       3.255  -1.143  -0.480  0.00  0.00    +0.033 HD
ATOM     15  H   UNL     1       3.579  -0.566  -2.140  0.00  0.00    +0.033 HD
BRANCH  13  16
ATOM     16  C   UNL     1       4.973   0.089  -0.677  0.00  0.00    +0.080 A 
ATOM     17  N   UNL     1       5.445  -0.057   0.586  0.00  0.00    -0.244 NA
ATOM     18  C   UNL     1       6.720   0.401   0.682  0.00  0.00    +0.078 A 
ATOM     19  C   UNL     1       7.478   0.382   1.854  0.00  0.00    -0.035 A 
ATOM     20  C   UNL     1       8.787   0.894   1.819  0.00  0.00    -0.060 A 
ATOM     21  C   UNL     1       9.317   1.417   0.622  0.00  0.00    -0.061 A 
ATOM     22  C   UNL     1       8.544   1.433  -0.549  0.00  0.00    -0.046 A 
ATOM     23  C   UNL     1       7.252   0.918  -0.488  0.00  0.00    +0.039 A 
ATOM     24  S   UNL     1       6.105   0.814  -1.709  0.00  0.00    -0.072 S 
ATOM     25  H   UNL     1       7.069  -0.019   2.772  0.00  0.00    +0.064 HD
ATOM     26  H   UNL     1       9.391   0.887   2.717  0.00  0.00    +0.062 HD
ATOM     27  H   UNL     1      10.326   1.810   0.607  0.00  0.00    +0.062 HD
ATOM     28  H   UNL     1       8.942   1.835  -1.472  0.00  0.00    +0.063 HD
ENDBRANCH  13  16
ENDBRANCH  10  13
ENDBRANCH   1  10
BRANCH   6  29
ATOM     29  O   UNL     1      -1.450   3.201  -1.974  0.00  0.00    -0.479 OA
ATOM     30  H   UNL     1      -0.988   4.034  -1.631  0.00  0.00    +0.295 HD
ENDBRANCH   6  29
BRANCH   1  31
ATOM     31  C   UNL     1       0.420   0.249   0.358  0.00  0.00    -0.006 C 
ATOM     32  H   UNL     1      -0.618  -0.084   0.137  0.00  0.00    +0.033 HD
BRANCH  31  33
ATOM     33  C   UNL     1       0.269   1.430   1.338  0.00  0.00    -0.059 C 
ATOM     34  H   UNL     1       1.254   1.827   1.656  0.00  0.00    +0.023 HD
ATOM     35  H   UNL     1      -0.278   1.100   2.247  0.00  0.00    +0.023 HD
ATOM     36  H   UNL     1      -0.324   2.252   0.885  0.00  0.00    +0.023 HD
ENDBRANCH  31  33
BRANCH  31  37
ATOM     37  C   UNL     1       1.091  -0.927   1.085  0.00  0.00    -0.059 C 
ATOM     38  H   UNL     1       2.095  -0.642   1.463  0.00  0.00    +0.023 HD
ATOM     39  H   UNL     1       1.171  -1.815   0.427  0.00  0.00    +0.023 HD
ATOM     40  H   UNL     1       0.474  -1.229   1.959  0.00  0.00    +0.023 HD
ENDBRANCH  31  37
ENDBRANCH   1  31
BRANCH   5  41
ATOM     41  S   UNL     1      -3.184   0.874  -2.741  0.00  0.00    -0.079 S 
BRANCH  41  42
ATOM     42  C   UNL     1      -3.630   0.415  -1.047  0.00  0.00    +0.017 A 
ATOM     43  C   UNL     1      -3.521   1.456  -0.113  0.00  0.00    -0.044 A 
ATOM     44  C   UNL     1      -3.546   1.219   1.263  0.00  0.00    -0.044 A 
ATOM     45  C   UNL     1      -3.736  -0.095   1.728  0.00  0.00    -0.019 A 
ATOM     46  C   UNL     1      -3.932  -1.128   0.801  0.00  0.00    -0.051 A 
ATOM     47  C   UNL     1      -3.960  -0.906  -0.598  0.00  0.00    -0.028 A 
ATOM     48  H   UNL     1      -3.356   2.465  -0.467  0.00  0.00    +0.063 HD
ATOM     49  H   UNL     1      -4.088  -2.124   1.192  0.00  0.00    +0.062 HD
BRANCH  44  50
ATOM     50  C   UNL     1      -3.359   2.375   2.212  0.00  0.00    -0.039 C 
ATOM     51  H   UNL     1      -4.311   2.576   2.747  0.00  0.00    +0.028 HD
ATOM     52  H   UNL     1      -2.564   2.142   2.951  0.00  0.00    +0.028 HD
ATOM     53  H   UNL     1      -3.057   3.301   1.678  0.00  0.00    +0.028 HD
ENDBRANCH  44  50
BRANCH  45  54
ATOM     54  C   UNL     1      -3.692  -0.430   3.199  0.00  0.00    +0.069 C 
ATOM     55  H   UNL     1      -4.215   0.353   3.790  0.00  0.00    +0.061 HD
ATOM     56  H   UNL     1      -4.219  -1.390   3.397  0.00  0.00    +0.061 HD
BRANCH  54  57
ATOM     57  O   UNL     1      -2.358  -0.534   3.610  0.00  0.00    -0.390 OA
ATOM     58  H   UNL     1      -2.383  -0.732   4.582  0.00  0.00    +0.210 HD
ENDBRANCH  54  57
ENDBRANCH  45  54
BRANCH  47  59
ATOM     59  C   UNL     1      -4.423  -2.103  -1.484  0.00  0.00    -0.012 C 
BRANCH  59  60
ATOM     60  C   UNL     1      -3.419  -3.270  -1.345  0.00  0.00    -0.056 C 
ATOM     61  H   UNL     1      -2.390  -2.931  -1.579  0.00  0.00    +0.024 HD
ATOM     62  H   UNL     1      -3.680  -4.102  -2.035  0.00  0.00    +0.024 HD
ATOM     63  H   UNL     1      -3.412  -3.688  -0.317  0.00  0.00    +0.024 HD
ENDBRANCH  59  60
BRANCH  59  64
ATOM     64  C   UNL     1      -5.815  -2.583  -0.996  0.00  0.00    -0.056 C 
ATOM     65  H   UNL     1      -6.545  -1.745  -1.030  0.00  0.00    +0.024 HD
ATOM     66  H   UNL     1      -5.789  -2.978   0.040  0.00  0.00    +0.024 HD
ATOM     67  H   UNL     1      -6.202  -3.407  -1.634  0.00  0.00    +0.024 HD
ENDBRANCH  59  64
BRANCH  59  68
ATOM     68  C   UNL     1      -4.588  -1.794  -2.988  0.00  0.00    -0.056 C 
ATOM     69  H   UNL     1      -5.255  -0.918  -3.142  0.00  0.00    +0.024 HD
ATOM     70  H   UNL     1      -3.611  -1.642  -3.484  0.00  0.00    +0.024 HD
ATOM     71  H   UNL     1      -5.054  -2.653  -3.519  0.00  0.00    +0.024 HD
ENDBRANCH  59  68
ENDBRANCH  47  59
ENDBRANCH  41  42
ENDBRANCH   5  41
TORSDOF 16
