REMARK  Name = 
REMARK  16 active torsions:
REMARK  status: ('A' for Active; 'I' for Inactive)
REMARK    1  A    between atoms: C_1  and  C_2
REMARK    2  A    between atoms: C_2  and  C_3
REMARK    3  A    between atoms: C_2  and  C_4
REMARK    4  A    between atoms: C_4  and  C_5
REMARK    5  A    between atoms: C_5  and  C_6
REMARK    6  A    between atoms: C_6  and  C_7
REMARK    7  A    between atoms: C_19  and  S_20
REMARK    8  A    between atoms: S_20  and  C_21
REMARK    9  A    between atoms: C_23  and  C_24
REMARK   10  A    between atoms: C_25  and  C_26
REMARK   11  A    between atoms: C_26  and  O_27
REMARK   12  A    between atoms: C_29  and  C_30
REMARK   13  A    between atoms: C_30  and  C_31
REMARK   14  A    between atoms: C_30  and  C_32
REMARK   15  A    between atoms: C_30  and  C_33
REMARK   16  A    between atoms: C_34  and  O_35
REMARK                            x       y       z     vdW  Elec       q    Type
REMARK                         _______ _______ _______ _____ _____    ______ ____
ROOT
ATOM      1  C   UNL     1       1.431   0.236   0.946  0.00  0.00    +0.123 C 
ATOM      2  C   UNL     1       1.219   0.918   2.329  0.00  0.00    +0.051 C 
ATOM      3  C   UNL     1      -0.179   1.455   2.454  0.00  0.00    +0.180 C 
ATOM      4  O   UNL     1      -0.698   1.583   3.596  0.00  0.00    -0.291 OA
ATOM      5  C   UNL     1      -0.909   1.898   1.250  0.00  0.00    +0.135 C 
ATOM      6  C   UNL     1      -0.310   1.790   0.057  0.00  0.00    +0.297 C 
ATOM      7  O   UNL     1       0.921   1.126  -0.060  0.00  0.00    -0.456 OA
ATOM      8  H   UNL     1       1.908   1.783   2.445  0.00  0.00    +0.038 HD
ATOM      9  H   UNL     1       1.430   0.212   3.159  0.00  0.00    +0.038 HD
ENDROOT
BRANCH   1  10
ATOM     10  C   UNL     1       2.966   0.091   0.717  0.00  0.00    -0.006 C 
ATOM     11  H   UNL     1       3.419  -0.553   1.501  0.00  0.00    +0.031 HD
ATOM     12  H   UNL     1       3.423   1.099   0.840  0.00  0.00    +0.031 HD
BRANCH  10  13
ATOM     13  C   UNL     1       3.370  -0.429  -0.671  0.00  0.00    -0.000 C 
ATOM     14  H   UNL     1       2.797   0.092  -1.467  0.00  0.00    +0.033 HD
ATOM     15  H   UNL     1       3.178  -1.517  -0.747  0.00  0.00    +0.033 HD
BRANCH  13  16
ATOM     16  C   UNL     1       4.831  -0.209  -0.905  0.00  0.00    +0.080 A 
ATOM     17  N   UNL     1       5.789  -1.067  -0.473  0.00  0.00    -0.244 NA
ATOM     18  C   UNL     1       7.028  -0.595  -0.763  0.00  0.00    +0.078 A 
ATOM     19  C   UNL     1       8.217  -1.256  -0.450  0.00  0.00    -0.035 A 
ATOM     20  C   UNL     1       9.437  -0.653  -0.802  0.00  0.00    -0.060 A 
ATOM     21  C   UNL     1       9.455   0.595  -1.457  0.00  0.00    -0.061 A 
ATOM     22  C   UNL     1       8.252   1.251  -1.766  0.00  0.00    -0.046 A 
ATOM     23  C   UNL     1       7.058   0.632  -1.408  0.00  0.00    +0.039 A 
ATOM     24  S   UNL     1       5.486   1.173  -1.636  0.00  0.00    -0.072 S 
ATOM     25  H   UNL     1       8.202  -2.213   0.054  0.00  0.00    +0.064 HD
ATOM     26  H   UNL     1      10.369  -1.151  -0.568  0.00  0.00    +0.062 HD
ATOM     27  H   UNL     1      10.400   1.050  -1.723  0.00  0.00    +0.062 HD
ATOM     28  H   UNL     1       8.255   2.210  -2.266  0.00  0.00    +0.063 HD
ENDBRANCH  13  16
ENDBRANCH  10  13
ENDBRANCH   1  10
BRANCH   6  29
ATOM     29  O   UNL     1      -0.899   2.317  -1.084  0.00  0.00    -0.479 OA
ATOM     30  H   UNL     1      -0.449   2.224  -1.986  0.00  0.00    +0.295 HD
ENDBRANCH   6  29
BRANCH   1  31
ATOM     31  C   UNL     1       0.634  -1.134   0.907  0.00  0.00    -0.006 C 
ATOM     32  H   UNL     1      -0.310  -0.993   1.475  0.00  0.00    +0.033 HD
BRANCH  31  33
ATOM     33  C   UNL     1       0.167  -1.558  -0.499  0.00  0.00    -0.059 C 
ATOM     34  H   UNL     1      -0.417  -2.502  -0.435  0.00  0.00    +0.023 HD
ATOM     35  H   UNL     1      -0.507  -0.794  -0.938  0.00  0.00    +0.023 HD
ATOM     36  H   UNL     1       1.011  -1.728  -1.190  0.00  0.00    +0.023 HD
ENDBRANCH  31  33
BRANCH  31  37
ATOM     37  C   UNL     1       1.351  -2.304   1.606  0.00  0.00    -0.059 C 
ATOM     38  H   UNL     1       1.683  -2.016   2.624  0.00  0.00    +0.023 HD
ATOM     39  H   UNL     1       2.229  -2.649   1.024  0.00  0.00    +0.023 HD
ATOM     40  H   UNL     1       0.654  -3.163   1.712  0.00  0.00    +0.023 HD
ENDBRANCH  31  37
ENDBRANCH   1  31
BRANCH   5  41
ATOM     41  S   UNL     1      -2.598   2.523   1.415  0.00  0.00    -0.079 S 
BRANCH  41  42
ATOM     42  C   UNL     1      -3.379   0.980   0.877  0.00  0.00    +0.017 A 
ATOM     43  C   UNL     1      -3.091  -0.158   1.643  0.00  0.00    -0.044 A 
ATOM     44  C   UNL     1      -3.391  -1.443   1.186  0.00  0.00    -0.044 A 
ATOM     45  C   UNL     1      -4.060  -1.594  -0.043  0.00  0.00    -0.019 A 
ATOM     46  C   UNL     1      -4.444  -0.453  -0.764  0.00  0.00    -0.051 A 
ATOM     47  C   UNL     1      -4.185   0.863  -0.299  0.00  0.00    -0.028 A 
ATOM     48  H   UNL     1      -2.557  -0.044   2.576  0.00  0.00    +0.063 HD
ATOM     49  H   UNL     1      -4.963  -0.623  -1.694  0.00  0.00    +0.062 HD
BRANCH  44  50
ATOM     50  C   UNL     1      -2.964  -2.634   2.006  0.00  0.00    -0.039 C 
ATOM     51  H   UNL     1      -2.359  -3.327   1.386  0.00  0.00    +0.028 HD
ATOM     52  H   UNL     1      -3.859  -3.164   2.392  0.00  0.00    +0.028 HD
ATOM     53  H   UNL     1      -2.340  -2.333   2.875  0.00  0.00    +0.028 HD
ENDBRANCH  44  50
BRANCH  45  54
ATOM     54  C   UNL     1      -4.341  -2.958  -0.626  0.00  0.00    +0.069 C 
ATOM     55  H   UNL     1      -5.166  -2.905  -1.371  0.00  0.00    +0.061 HD
ATOM     56  H   UNL     1      -4.672  -3.660   0.170  0.00  0.00    +0.061 HD
BRANCH  54  57
ATOM     57  O   UNL     1      -3.183  -3.444  -1.246  0.00  0.00    -0.390 OA
ATOM     58  H   UNL     1      -3.411  -4.347  -1.588  0.00  0.00    +0.210 HD
ENDBRANCH  54  57
ENDBRANCH  45  54
BRANCH  47  59
ATOM     59  C   UNL     1      -4.858   2.089  -0.996  0.00  0.00    -0.012 C 
BRANCH  59  60
ATOM     60  C   UNL     1      -5.648   2.924   0.040  0.00  0.00    -0.056 C 
ATOM     61  H   UNL     1      -6.350   2.273   0.605  0.00  0.00    +0.024 HD
ATOM     62  H   UNL     1      -6.240   3.722  -0.459  0.00  0.00    +0.024 HD
ATOM     63  H   UNL     1      -4.993   3.440   0.765  0.00  0.00    +0.024 HD
ENDBRANCH  59  60
BRANCH  59  64
ATOM     64  C   UNL     1      -3.814   2.977  -1.702  0.00  0.00    -0.056 C 
ATOM     65  H   UNL     1      -3.172   3.523  -0.988  0.00  0.00    +0.024 HD
ATOM     66  H   UNL     1      -4.312   3.755  -2.321  0.00  0.00    +0.024 HD
ATOM     67  H   UNL     1      -3.179   2.362  -2.375  0.00  0.00    +0.024 HD
ENDBRANCH  59  64
BRANCH  59  68
ATOM     68  C   UNL     1      -5.889   1.673  -2.082  0.00  0.00    -0.056 C 
ATOM     69  H   UNL     1      -5.390   1.170  -2.939  0.00  0.00    +0.024 HD
ATOM     70  H   UNL     1      -6.666   1.002  -1.655  0.00  0.00    +0.024 HD
ATOM     71  H   UNL     1      -6.413   2.560  -2.500  0.00  0.00    +0.024 HD
ENDBRANCH  59  68
ENDBRANCH  47  59
ENDBRANCH  41  42
ENDBRANCH   5  41
TORSDOF 16
