REMARK  Name = 
REMARK  16 active torsions:
REMARK  status: ('A' for Active; 'I' for Inactive)
REMARK    1  A    between atoms: C_1  and  C_2
REMARK    2  A    between atoms: C_2  and  C_3
REMARK    3  A    between atoms: C_2  and  C_4
REMARK    4  A    between atoms: C_4  and  C_5
REMARK    5  A    between atoms: C_5  and  C_6
REMARK    6  A    between atoms: C_6  and  C_7
REMARK    7  A    between atoms: C_19  and  S_20
REMARK    8  A    between atoms: S_20  and  C_21
REMARK    9  A    between atoms: C_23  and  C_24
REMARK   10  A    between atoms: C_25  and  C_26
REMARK   11  A    between atoms: C_26  and  O_27
REMARK   12  A    between atoms: C_29  and  C_30
REMARK   13  A    between atoms: C_30  and  C_31
REMARK   14  A    between atoms: C_30  and  C_32
REMARK   15  A    between atoms: C_30  and  C_33
REMARK   16  A    between atoms: C_34  and  O_35
REMARK                            x       y       z     vdW  Elec       q    Type
REMARK                         _______ _______ _______ _____ _____    ______ ____
ROOT
ATOM      1  C   UNL     1       1.552  -2.580  -0.357  0.00  0.00    +0.123 C 
ATOM      2  C   UNL     1       1.328  -1.084   0.005  0.00  0.00    +0.051 C 
ATOM      3  C   UNL     1       0.600  -0.380  -1.100  0.00  0.00    +0.180 C 
ATOM      4  O   UNL     1       0.895   0.809  -1.386  0.00  0.00    -0.291 OA
ATOM      5  C   UNL     1      -0.484  -1.081  -1.806  0.00  0.00    +0.135 C 
ATOM      6  C   UNL     1      -0.608  -2.405  -1.632  0.00  0.00    +0.297 C 
ATOM      7  O   UNL     1       0.292  -3.107  -0.811  0.00  0.00    -0.456 OA
ATOM      8  H   UNL     1       2.277  -0.558   0.222  0.00  0.00    +0.038 HD
ATOM      9  H   UNL     1       0.693  -1.007   0.914  0.00  0.00    +0.038 HD
ENDROOT
BRANCH   1  10
ATOM     10  C   UNL     1       1.892  -3.409   0.928  0.00  0.00    -0.006 C 
ATOM     11  H   UNL     1       1.075  -3.262   1.669  0.00  0.00    +0.031 HD
ATOM     12  H   UNL     1       1.841  -4.489   0.672  0.00  0.00    +0.031 HD
BRANCH  10  13
ATOM     13  C   UNL     1       3.236  -3.178   1.646  0.00  0.00    -0.000 C 
ATOM     14  H   UNL     1       3.321  -3.934   2.455  0.00  0.00    +0.033 HD
ATOM     15  H   UNL     1       4.093  -3.370   0.976  0.00  0.00    +0.033 HD
BRANCH  13  16
ATOM     16  C   UNL     1       3.346  -1.832   2.292  0.00  0.00    +0.080 A 
ATOM     17  N   UNL     1       4.291  -0.921   1.951  0.00  0.00    -0.244 NA
ATOM     18  C   UNL     1       4.165   0.210   2.691  0.00  0.00    +0.078 A 
ATOM     19  C   UNL     1       4.984   1.333   2.560  0.00  0.00    -0.035 A 
ATOM     20  C   UNL     1       4.743   2.443   3.388  0.00  0.00    -0.060 A 
ATOM     21  C   UNL     1       3.694   2.418   4.330  0.00  0.00    -0.061 A 
ATOM     22  C   UNL     1       2.877   1.283   4.452  0.00  0.00    -0.046 A 
ATOM     23  C   UNL     1       3.136   0.197   3.620  0.00  0.00    +0.039 A 
ATOM     24  S   UNL     1       2.337  -1.275   3.536  0.00  0.00    -0.072 S 
ATOM     25  H   UNL     1       5.788   1.351   1.836  0.00  0.00    +0.064 HD
ATOM     26  H   UNL     1       5.367   3.323   3.301  0.00  0.00    +0.062 HD
ATOM     27  H   UNL     1       3.518   3.279   4.962  0.00  0.00    +0.062 HD
ATOM     28  H   UNL     1       2.069   1.254   5.171  0.00  0.00    +0.063 HD
ENDBRANCH  13  16
ENDBRANCH  10  13
ENDBRANCH   1  10
BRANCH   6  29
ATOM     29  O   UNL     1      -1.633  -3.104  -2.261  0.00  0.00    -0.479 OA
ATOM     30  H   UNL     1      -1.730  -4.103  -2.129  0.00  0.00    +0.295 HD
ENDBRANCH   6  29
BRANCH   1  31
ATOM     31  C   UNL     1       2.572  -2.761  -1.552  0.00  0.00    -0.006 C 
ATOM     32  H   UNL     1       2.030  -2.470  -2.479  0.00  0.00    +0.033 HD
BRANCH  31  33
ATOM     33  C   UNL     1       3.813  -1.846  -1.536  0.00  0.00    -0.059 C 
ATOM     34  H   UNL     1       3.518  -0.788  -1.694  0.00  0.00    +0.023 HD
ATOM     35  H   UNL     1       4.494  -2.110  -2.373  0.00  0.00    +0.023 HD
ATOM     36  H   UNL     1       4.387  -1.918  -0.598  0.00  0.00    +0.023 HD
ENDBRANCH  31  33
BRANCH  31  37
ATOM     37  C   UNL     1       2.982  -4.226  -1.777  0.00  0.00    -0.059 C 
ATOM     38  H   UNL     1       3.507  -4.330  -2.750  0.00  0.00    +0.023 HD
ATOM     39  H   UNL     1       3.664  -4.583  -0.979  0.00  0.00    +0.023 HD
ATOM     40  H   UNL     1       2.083  -4.879  -1.808  0.00  0.00    +0.023 HD
ENDBRANCH  31  37
ENDBRANCH   1  31
BRANCH   5  41
ATOM     41  S   UNL     1      -1.638  -0.192  -2.877  0.00  0.00    -0.079 S 
BRANCH  41  42
ATOM     42  C   UNL     1      -2.637   0.489  -1.530  0.00  0.00    +0.017 A 
ATOM     43  C   UNL     1      -3.287  -0.446  -0.710  0.00  0.00    -0.044 A 
ATOM     44  C   UNL     1      -3.958  -0.062   0.453  0.00  0.00    -0.044 A 
ATOM     45  C   UNL     1      -3.963   1.295   0.823  0.00  0.00    -0.019 A 
ATOM     46  C   UNL     1      -3.409   2.247  -0.045  0.00  0.00    -0.051 A 
ATOM     47  C   UNL     1      -2.783   1.890  -1.269  0.00  0.00    -0.028 A 
ATOM     48  H   UNL     1      -3.240  -1.496  -0.966  0.00  0.00    +0.063 HD
ATOM     49  H   UNL     1      -3.499   3.278   0.258  0.00  0.00    +0.062 HD
BRANCH  44  50
ATOM     50  C   UNL     1      -4.592  -1.122   1.317  0.00  0.00    -0.039 C 
ATOM     51  H   UNL     1      -5.618  -0.817   1.612  0.00  0.00    +0.028 HD
ATOM     52  H   UNL     1      -3.976  -1.279   2.227  0.00  0.00    +0.028 HD
ATOM     53  H   UNL     1      -4.676  -2.091   0.779  0.00  0.00    +0.028 HD
ENDBRANCH  44  50
BRANCH  45  54
ATOM     54  C   UNL     1      -4.635   1.769   2.092  0.00  0.00    +0.069 C 
ATOM     55  H   UNL     1      -4.446   1.055   2.919  0.00  0.00    +0.061 HD
ATOM     56  H   UNL     1      -4.214   2.744   2.428  0.00  0.00    +0.061 HD
BRANCH  54  57
ATOM     57  O   UNL     1      -6.018   1.883   1.894  0.00  0.00    -0.390 OA
ATOM     58  H   UNL     1      -6.159   2.701   1.349  0.00  0.00    +0.210 HD
ENDBRANCH  54  57
ENDBRANCH  45  54
BRANCH  47  59
ATOM     59  C   UNL     1      -2.391   2.996  -2.301  0.00  0.00    -0.012 C 
BRANCH  59  60
ATOM     60  C   UNL     1      -0.865   3.051  -2.515  0.00  0.00    -0.056 C 
ATOM     61  H   UNL     1      -0.343   3.112  -1.537  0.00  0.00    +0.024 HD
ATOM     62  H   UNL     1      -0.580   3.947  -3.110  0.00  0.00    +0.024 HD
ATOM     63  H   UNL     1      -0.485   2.184  -3.083  0.00  0.00    +0.024 HD
ENDBRANCH  59  60
BRANCH  59  64
ATOM     64  C   UNL     1      -2.820   4.421  -1.853  0.00  0.00    -0.056 C 
ATOM     65  H   UNL     1      -3.917   4.471  -1.678  0.00  0.00    +0.024 HD
ATOM     66  H   UNL     1      -2.580   5.177  -2.632  0.00  0.00    +0.024 HD
ATOM     67  H   UNL     1      -2.279   4.731  -0.932  0.00  0.00    +0.024 HD
ENDBRANCH  59  64
BRANCH  59  68
ATOM     68  C   UNL     1      -3.108   2.743  -3.650  0.00  0.00    -0.056 C 
ATOM     69  H   UNL     1      -2.941   3.587  -4.353  0.00  0.00    +0.024 HD
ATOM     70  H   UNL     1      -4.202   2.636  -3.490  0.00  0.00    +0.024 HD
ATOM     71  H   UNL     1      -2.743   1.837  -4.165  0.00  0.00    +0.024 HD
ENDBRANCH  59  68
ENDBRANCH  47  59
ENDBRANCH  41  42
ENDBRANCH   5  41
TORSDOF 16
