REMARK  Name = 
REMARK  10 active torsions:
REMARK  status: ('A' for Active; 'I' for Inactive)
REMARK    1  A    between atoms: C_1  and  C_2
REMARK    2  A    between atoms: C_2  and  C_3
REMARK    3  A    between atoms: C_3  and  C_4
REMARK    4  A    between atoms: C_3  and  C_25
REMARK    5  A    between atoms: C_8  and  N_9
REMARK    6  A    between atoms: C_10  and  C_12
REMARK    7  A    between atoms: C_12  and  C_13
REMARK    8  A    between atoms: C_13  and  N_14
REMARK    9  A    between atoms: N_14  and  C_15
REMARK   10  A    between atoms: C_26  and  O_27
REMARK                            x       y       z     vdW  Elec       q    Type
REMARK                         _______ _______ _______ _____ _____    ______ ____
ROOT
ATOM      1  C   UNL     1       2.441   1.203  -0.822  0.00  0.00    -0.038 A 
ATOM      2  C   UNL     1       2.391   0.642  -2.111  0.00  0.00    -0.058 A 
ATOM      3  C   UNL     1       1.164   0.402  -2.730  0.00  0.00    -0.060 A 
ATOM      4  C   UNL     1      -0.028   0.723  -2.078  0.00  0.00    -0.040 A 
ATOM      5  C   UNL     1      -0.001   1.305  -0.800  0.00  0.00    +0.034 A 
ATOM      6  C   UNL     1       1.235   1.523  -0.172  0.00  0.00    -0.037 A 
ATOM      7  H   UNL     1       3.299   0.383  -2.637  0.00  0.00    +0.062 HD
ATOM      8  H   UNL     1       1.135  -0.045  -3.716  0.00  0.00    +0.062 HD
ATOM      9  H   UNL     1      -0.967   0.493  -2.564  0.00  0.00    +0.064 HD
ATOM     10  H   UNL     1       1.253   1.952   0.822  0.00  0.00    +0.064 HD
ENDROOT
BRANCH   5  11
ATOM     11  N   UNL     1      -1.213   1.620  -0.094  0.00  0.00    -0.285 N 
ATOM     12  C   UNL     1      -2.422   2.064  -0.732  0.00  0.00    +0.218 C 
ATOM     13  O   UNL     1      -2.406   2.469  -1.926  0.00  0.00    -0.275 OA
ATOM     14  H   UNL     1      -1.197   1.581   0.950  0.00  0.00    +0.155 HD
BRANCH  12  15
ATOM     15  C   UNL     1      -3.719   2.061   0.024  0.00  0.00    +0.037 C 
ATOM     16  H   UNL     1      -4.256   3.009  -0.193  0.00  0.00    +0.037 HD
ATOM     17  H   UNL     1      -3.529   2.041   1.117  0.00  0.00    +0.037 HD
BRANCH  15  18
ATOM     18  C   UNL     1      -4.615   0.880  -0.388  0.00  0.00    +0.005 C 
ATOM     19  H   UNL     1      -4.720   0.876  -1.494  0.00  0.00    +0.043 HD
ATOM     20  H   UNL     1      -5.636   1.053   0.012  0.00  0.00    +0.043 HD
BRANCH  18  21
ATOM     21  N   UNL     1      -4.074  -0.433   0.031  0.00  0.00    -0.306 NA
ATOM     22  H   UNL     1      -3.036  -0.397   0.154  0.00  0.00    +0.123 HD
BRANCH  21  23
ATOM     23  C   UNL     1      -4.675  -1.016   1.247  0.00  0.00    +0.052 C 
ATOM     24  C   UNL     1      -4.657  -0.083   2.437  0.00  0.00    -0.062 C 
ATOM     25  C   UNL     1      -5.885   0.146   2.898  0.00  0.00    -0.056 C 
ATOM     26  C   UNL     1      -6.829  -0.586   2.075  0.00  0.00    -0.020 A 
ATOM     27  C   UNL     1      -8.218  -0.649   2.170  0.00  0.00    -0.054 A 
ATOM     28  C   UNL     1      -8.911  -1.439   1.237  0.00  0.00    -0.061 A 
ATOM     29  C   UNL     1      -8.208  -2.144   0.239  0.00  0.00    -0.061 A 
ATOM     30  C   UNL     1      -6.807  -2.062   0.167  0.00  0.00    -0.056 A 
ATOM     31  C   UNL     1      -6.141  -1.268   1.101  0.00  0.00    -0.020 A 
ATOM     32  H   UNL     1      -4.159  -1.966   1.507  0.00  0.00    +0.055 HD
ATOM     33  H   UNL     1      -3.761   0.326   2.883  0.00  0.00    +0.059 HD
ATOM     34  H   UNL     1      -6.125   0.771   3.748  0.00  0.00    +0.062 HD
ATOM     35  H   UNL     1      -8.749  -0.105   2.940  0.00  0.00    +0.062 HD
ATOM     36  H   UNL     1      -9.990  -1.508   1.286  0.00  0.00    +0.062 HD
ATOM     37  H   UNL     1      -8.749  -2.751  -0.475  0.00  0.00    +0.062 HD
ATOM     38  H   UNL     1      -6.259  -2.600  -0.596  0.00  0.00    +0.062 HD
ENDBRANCH  21  23
ENDBRANCH  18  21
ENDBRANCH  15  18
ENDBRANCH  12  15
ENDBRANCH   5  11
BRANCH   1  39
ATOM     39  C   UNL     1       3.768   1.455  -0.127  0.00  0.00    +0.019 C 
ATOM     40  H   UNL     1       3.566   1.906   0.871  0.00  0.00    +0.040 HD
BRANCH  39  41
ATOM     41  C   UNL     1       4.488   0.130   0.146  0.00  0.00    +0.087 A 
ATOM     42  C   UNL     1       4.146  -0.604   1.305  0.00  0.00    +0.292 A 
ATOM     43  O   UNL     1       4.721  -1.773   1.569  0.00  0.00    -0.425 OA
ATOM     44  C   UNL     1       5.624  -2.330   0.774  0.00  0.00    +0.143 A 
ATOM     45  C   UNL     1       6.186  -3.563   1.124  0.00  0.00    -0.019 A 
ATOM     46  C   UNL     1       7.132  -4.165   0.291  0.00  0.00    -0.058 A 
ATOM     47  C   UNL     1       7.520  -3.539  -0.896  0.00  0.00    -0.061 A 
ATOM     48  C   UNL     1       6.965  -2.308  -1.256  0.00  0.00    -0.047 A 
ATOM     49  C   UNL     1       6.012  -1.690  -0.421  0.00  0.00    +0.064 A 
ATOM     50  C   UNL     1       5.427  -0.453  -0.741  0.00  0.00    +0.200 A 
ATOM     51  O   UNL     1       5.744   0.123  -1.817  0.00  0.00    -0.287 OA
ATOM     52  H   UNL     1       5.888  -4.055   2.042  0.00  0.00    +0.065 HD
ATOM     53  H   UNL     1       7.564  -5.119   0.565  0.00  0.00    +0.062 HD
ATOM     54  H   UNL     1       8.252  -4.010  -1.540  0.00  0.00    +0.062 HD
ATOM     55  H   UNL     1       7.282  -1.842  -2.181  0.00  0.00    +0.063 HD
BRANCH  42  56
ATOM     56  O   UNL     1       3.191  -0.115   2.193  0.00  0.00    -0.480 OA
ATOM     57  H   UNL     1       2.939  -0.638   3.022  0.00  0.00    +0.295 HD
ENDBRANCH  42  56
ENDBRANCH  39  41
BRANCH  39  58
ATOM     58  C   UNL     1       4.614   2.522  -0.865  0.00  0.00    -0.045 C 
ATOM     59  H   UNL     1       5.643   2.535  -0.442  0.00  0.00    +0.027 HD
ATOM     60  H   UNL     1       4.684   2.299  -1.950  0.00  0.00    +0.027 HD
BRANCH  58  61
ATOM     61  C   UNL     1       4.023   3.925  -0.719  0.00  0.00    -0.064 C 
ATOM     62  H   UNL     1       3.977   4.219   0.352  0.00  0.00    +0.023 HD
ATOM     63  H   UNL     1       4.663   4.656  -1.257  0.00  0.00    +0.023 HD
ATOM     64  H   UNL     1       3.002   3.965  -1.153  0.00  0.00    +0.023 HD
ENDBRANCH  58  61
ENDBRANCH  39  58
ENDBRANCH   1  39
TORSDOF 10
