REMARK  Name = 
REMARK  14 active torsions:
REMARK  status: ('A' for Active; 'I' for Inactive)
REMARK    1  A    between atoms: C_1  and  C_2
REMARK    2  A    between atoms: C_2  and  C_3
REMARK    3  A    between atoms: C_2  and  C_4
REMARK    4  A    between atoms: C_2  and  N_5
REMARK    5  A    between atoms: C_6  and  C_8
REMARK    6  A    between atoms: C_13  and  C_14
REMARK    7  A    between atoms: C_14  and  C_15
REMARK    8  A    between atoms: C_15  and  O_16
REMARK    9  A    between atoms: C_15  and  C_17
REMARK   10  A    between atoms: C_17  and  C_18
REMARK   11  A    between atoms: C_17  and  N_30
REMARK   12  A    between atoms: C_18  and  S_19
REMARK   13  A    between atoms: S_19  and  C_20
REMARK   14  A    between atoms: C_31  and  C_33
REMARK                            x       y       z     vdW  Elec       q    Type
REMARK                         _______ _______ _______ _____ _____    ______ ____
ROOT
ATOM      1  C   UNL     1      -0.251   0.551  -1.299  0.00  0.00    +0.059 C 
ATOM      2  H   UNL     1      -0.595  -0.137  -0.501  0.00  0.00    +0.053 HD
ENDROOT
BRANCH   1   3
ATOM      3  N   UNL     1      -0.487   1.930  -0.859  0.00  0.00    -0.305 N 
ATOM      4  C   UNL     1      -0.365   2.326   0.516  0.00  0.00    +0.245 C 
ATOM      5  O   UNL     1      -0.036   1.481   1.393  0.00  0.00    -0.270 OA
ATOM      6  H   UNL     1      -0.617   2.674  -1.583  0.00  0.00    +0.149 HD
BRANCH   4   7
ATOM      7  C   UNL     1      -0.557   3.737   0.908  0.00  0.00    +0.047 A 
ATOM      8  C   UNL     1       0.463   4.366   1.635  0.00  0.00    -0.031 A 
ATOM      9  C   UNL     1       0.350   5.715   1.971  0.00  0.00    +0.029 A 
ATOM     10  N   UNL     1      -0.749   6.421   1.605  0.00  0.00    -0.255 NA
ATOM     11  C   UNL     1      -1.774   5.848   0.919  0.00  0.00    +0.072 A 
ATOM     12  C   UNL     1      -2.894   6.617   0.583  0.00  0.00    -0.036 A 
ATOM     13  C   UNL     1      -3.969   6.034  -0.091  0.00  0.00    -0.060 A 
ATOM     14  C   UNL     1      -3.935   4.678  -0.422  0.00  0.00    -0.061 A 
ATOM     15  C   UNL     1      -2.821   3.900  -0.095  0.00  0.00    -0.052 A 
ATOM     16  C   UNL     1      -1.714   4.478   0.560  0.00  0.00    +0.012 A 
ATOM     17  H   UNL     1       1.356   3.822   1.920  0.00  0.00    +0.064 HD
ATOM     18  H   UNL     1       1.144   6.204   2.520  0.00  0.00    +0.083 HD
ATOM     19  H   UNL     1      -2.937   7.666   0.850  0.00  0.00    +0.064 HD
ATOM     20  H   UNL     1      -4.835   6.631  -0.346  0.00  0.00    +0.062 HD
ATOM     21  H   UNL     1      -4.778   4.226  -0.928  0.00  0.00    +0.062 HD
ATOM     22  H   UNL     1      -2.846   2.848  -0.339  0.00  0.00    +0.062 HD
ENDBRANCH   4   7
ENDBRANCH   1   3
BRANCH   1  23
ATOM     23  C   UNL     1      -1.079   0.245  -2.566  0.00  0.00    +0.019 C 
ATOM     24  H   UNL     1      -0.741   0.889  -3.404  0.00  0.00    +0.040 HD
ATOM     25  H   UNL     1      -0.948  -0.812  -2.874  0.00  0.00    +0.040 HD
BRANCH  23  26
ATOM     26  S   UNL     1      -2.865   0.577  -2.325  0.00  0.00    -0.123 S 
BRANCH  26  27
ATOM     27  C   UNL     1      -3.165  -0.822  -1.240  0.00  0.00    +0.009 A 
ATOM     28  C   UNL     1      -3.157  -0.643   0.149  0.00  0.00    -0.048 A 
ATOM     29  C   UNL     1      -3.385  -1.726   1.001  0.00  0.00    -0.053 A 
ATOM     30  C   UNL     1      -3.642  -2.998   0.468  0.00  0.00    -0.018 A 
ATOM     31  C   UNL     1      -3.862  -4.097   1.313  0.00  0.00    -0.054 A 
ATOM     32  C   UNL     1      -4.112  -5.360   0.770  0.00  0.00    -0.061 A 
ATOM     33  C   UNL     1      -4.147  -5.536  -0.616  0.00  0.00    -0.061 A 
ATOM     34  C   UNL     1      -3.929  -4.450  -1.469  0.00  0.00    -0.054 A 
ATOM     35  C   UNL     1      -3.673  -3.177  -0.937  0.00  0.00    -0.017 A 
ATOM     36  C   UNL     1      -3.434  -2.083  -1.782  0.00  0.00    -0.041 A 
ATOM     37  H   UNL     1      -2.962   0.335   0.570  0.00  0.00    +0.063 HD
ATOM     38  H   UNL     1      -3.359  -1.571   2.073  0.00  0.00    +0.062 HD
ATOM     39  H   UNL     1      -3.837  -3.979   2.390  0.00  0.00    +0.062 HD
ATOM     40  H   UNL     1      -4.279  -6.205   1.425  0.00  0.00    +0.062 HD
ATOM     41  H   UNL     1      -4.340  -6.517  -1.030  0.00  0.00    +0.062 HD
ATOM     42  H   UNL     1      -3.954  -4.606  -2.541  0.00  0.00    +0.062 HD
ATOM     43  H   UNL     1      -3.447  -2.209  -2.858  0.00  0.00    +0.063 HD
ENDBRANCH  26  27
ENDBRANCH  23  26
ENDBRANCH   1  23
BRANCH   1  44
ATOM     44  C   UNL     1       1.273   0.330  -1.490  0.00  0.00    +0.078 C 
ATOM     45  H   UNL     1       1.756   0.631  -0.540  0.00  0.00    +0.062 HD
BRANCH  44  46
ATOM     46  C   UNL     1       1.683  -1.140  -1.760  0.00  0.00    +0.001 C 
ATOM     47  H   UNL     1       1.318  -1.447  -2.764  0.00  0.00    +0.034 HD
ATOM     48  H   UNL     1       2.787  -1.199  -1.828  0.00  0.00    +0.034 HD
BRANCH  46  54
ATOM     49  C   UNL     1       1.648  -2.083   0.643  0.00  0.00    +0.040 A 
ATOM     50  C   UNL     1       1.056  -2.931   1.595  0.00  0.00    -0.049 A 
ATOM     51  C   UNL     1       0.058  -3.830   1.222  0.00  0.00    -0.061 A 
ATOM     52  C   UNL     1      -0.367  -3.890  -0.102  0.00  0.00    -0.061 A 
ATOM     53  C   UNL     1       0.177  -3.026  -1.053  0.00  0.00    -0.058 A 
ATOM     54  C   UNL     1       1.185  -2.108  -0.700  0.00  0.00    -0.033 A 
ATOM     55  H   UNL     1       1.387  -2.911   2.627  0.00  0.00    +0.063 HD
ATOM     56  H   UNL     1      -0.380  -4.490   1.961  0.00  0.00    +0.062 HD
ATOM     57  H   UNL     1      -1.130  -4.601  -0.391  0.00  0.00    +0.062 HD
ATOM     58  H   UNL     1      -0.197  -3.074  -2.068  0.00  0.00    +0.062 HD
BRANCH  49  60
ATOM     59  N   UNL     1       4.028  -1.248   0.464  0.00  0.00    -0.307 N 
ATOM     60  C   UNL     1       2.735  -1.192   1.093  0.00  0.00    +0.245 C 
ATOM     61  O   UNL     1       2.526  -0.418   2.065  0.00  0.00    -0.270 OA
ATOM     62  H   UNL     1       4.197  -2.053  -0.183  0.00  0.00    +0.150 HD
BRANCH  59  63
ATOM     63  C   UNL     1       5.110  -0.265   0.663  0.00  0.00    +0.026 C 
BRANCH  63  64
ATOM     64  C   UNL     1       5.601  -0.301   2.123  0.00  0.00    -0.044 C 
ATOM     65  H   UNL     1       6.498   0.343   2.250  0.00  0.00    +0.025 HD
ATOM     66  H   UNL     1       4.827   0.068   2.825  0.00  0.00    +0.025 HD
ATOM     67  H   UNL     1       5.870  -1.340   2.413  0.00  0.00    +0.025 HD
ENDBRANCH  63  64
BRANCH  63  68
ATOM     68  C   UNL     1       4.619   1.150   0.299  0.00  0.00    -0.044 C 
ATOM     69  H   UNL     1       4.243   1.169  -0.746  0.00  0.00    +0.025 HD
ATOM     70  H   UNL     1       3.801   1.482   0.971  0.00  0.00    +0.025 HD
ATOM     71  H   UNL     1       5.448   1.885   0.387  0.00  0.00    +0.025 HD
ENDBRANCH  63  68
BRANCH  63  72
ATOM     72  C   UNL     1       6.291  -0.625  -0.261  0.00  0.00    -0.044 C 
ATOM     73  H   UNL     1       5.967  -0.620  -1.324  0.00  0.00    +0.025 HD
ATOM     74  H   UNL     1       7.123   0.103  -0.145  0.00  0.00    +0.025 HD
ATOM     75  H   UNL     1       6.677  -1.639  -0.020  0.00  0.00    +0.025 HD
ENDBRANCH  63  72
ENDBRANCH  59  63
ENDBRANCH  49  60
ENDBRANCH  46  54
ENDBRANCH  44  46
BRANCH  44  76
ATOM     76  O   UNL     1       1.789   1.188  -2.479  0.00  0.00    -0.390 OA
ATOM     77  H   UNL     1       1.560   0.811  -3.368  0.00  0.00    +0.210 HD
ENDBRANCH  44  76
ENDBRANCH   1  44
TORSDOF 14
