REMARK  Name = 
REMARK  18 active torsions:
REMARK  status: ('A' for Active; 'I' for Inactive)
REMARK    1  A    between atoms: C_1  and  C_2
REMARK    2  A    between atoms: C_2  and  C_3
REMARK    3  A    between atoms: C_2  and  C_4
REMARK    4  A    between atoms: C_4  and  N_5
REMARK    5  A    between atoms: C_4  and  C_41
REMARK    6  A    between atoms: C_6  and  C_8
REMARK    7  A    between atoms: C_8  and  C_9
REMARK    8  A    between atoms: C_11  and  C_12
REMARK    9  A    between atoms: C_12  and  C_13
REMARK   10  A    between atoms: C_12  and  N_20
REMARK   11  A    between atoms: C_13  and  C_14
REMARK   12  A    between atoms: C_21  and  C_23
REMARK   13  A    between atoms: C_23  and  C_24
REMARK   14  A    between atoms: C_23  and  N_28
REMARK   15  A    between atoms: C_24  and  C_25
REMARK   16  A    between atoms: C_29  and  C_31
REMARK   17  A    between atoms: C_41  and  C_42
REMARK   18  A    between atoms: C_41  and  C_43
REMARK                            x       y       z     vdW  Elec       q    Type
REMARK                         _______ _______ _______ _____ _____    ______ ____
ROOT
ATOM      1  C   UNL     1      -0.387   0.164   2.268  0.00  0.00    +0.056 C 
ATOM      2  H   UNL     1      -0.163   1.110   1.734  0.00  0.00    +0.053 HD
ENDROOT
BRANCH   1   5
ATOM      3  C   UNL     1      -2.408   1.383   3.480  0.00  0.00    +0.095 C 
ATOM      4  O   UNL     1      -1.136   1.727   3.987  0.00  0.00    -0.366 OA
ATOM      5  C   UNL     1      -1.274   0.410   3.501  0.00  0.00    +0.104 C 
ATOM      6  H   UNL     1      -3.150   1.314   4.304  0.00  0.00    +0.063 HD
ATOM      7  H   UNL     1      -1.275  -0.333   4.327  0.00  0.00    +0.064 HD
BRANCH   3   8
ATOM      8  C   UNL     1      -2.752   2.236   2.248  0.00  0.00    +0.053 C 
ATOM      9  H   UNL     1      -3.040   3.248   2.602  0.00  0.00    +0.038 HD
ATOM     10  H   UNL     1      -1.892   2.377   1.567  0.00  0.00    +0.038 HD
BRANCH   8  12
ATOM     11  N   UNL     1      -3.913   1.625   0.064  0.00  0.00    -0.312 N 
ATOM     12  C   UNL     1      -3.920   1.659   1.500  0.00  0.00    +0.216 C 
ATOM     13  O   UNL     1      -4.936   1.269   2.139  0.00  0.00    -0.276 OA
ATOM     14  H   UNL     1      -3.058   1.965  -0.428  0.00  0.00    +0.149 HD
BRANCH  11  15
ATOM     15  C   UNL     1      -5.087   1.208  -0.721  0.00  0.00    +0.028 C 
ATOM     16  H   UNL     1      -5.990   1.557  -0.170  0.00  0.00    +0.050 HD
BRANCH  15  17
ATOM     17  C   UNL     1      -5.203  -0.349  -0.753  0.00  0.00    -0.028 C 
ATOM     18  H   UNL     1      -5.293  -0.670   0.309  0.00  0.00    +0.031 HD
BRANCH  17  19
ATOM     19  C   UNL     1      -3.970  -1.082  -1.315  0.00  0.00    -0.061 C 
ATOM     20  H   UNL     1      -3.861  -2.067  -0.813  0.00  0.00    +0.023 HD
ATOM     21  H   UNL     1      -4.065  -1.284  -2.401  0.00  0.00    +0.023 HD
ATOM     22  H   UNL     1      -3.041  -0.508  -1.143  0.00  0.00    +0.023 HD
ENDBRANCH  17  19
BRANCH  17  23
ATOM     23  C   UNL     1      -6.485  -0.828  -1.449  0.00  0.00    -0.061 C 
ATOM     24  H   UNL     1      -7.372  -0.312  -1.023  0.00  0.00    +0.023 HD
ATOM     25  H   UNL     1      -6.443  -0.635  -2.541  0.00  0.00    +0.023 HD
ATOM     26  H   UNL     1      -6.613  -1.921  -1.293  0.00  0.00    +0.023 HD
ENDBRANCH  17  23
ENDBRANCH  15  17
BRANCH  15  27
ATOM     27  C   UNL     1      -5.162   1.948  -2.098  0.00  0.00    -0.028 C 
ATOM     28  H   UNL     1      -6.137   1.698  -2.569  0.00  0.00    +0.031 HD
BRANCH  27  29
ATOM     29  C   UNL     1      -4.061   1.567  -3.104  0.00  0.00    -0.061 C 
ATOM     30  H   UNL     1      -4.035   2.293  -3.944  0.00  0.00    +0.023 HD
ATOM     31  H   UNL     1      -3.056   1.547  -2.637  0.00  0.00    +0.023 HD
ATOM     32  H   UNL     1      -4.281   0.583  -3.560  0.00  0.00    +0.023 HD
ENDBRANCH  27  29
BRANCH  27  33
ATOM     33  C   UNL     1      -5.176   3.472  -1.890  0.00  0.00    -0.061 C 
ATOM     34  H   UNL     1      -4.198   3.832  -1.506  0.00  0.00    +0.023 HD
ATOM     35  H   UNL     1      -5.388   3.989  -2.850  0.00  0.00    +0.023 HD
ATOM     36  H   UNL     1      -5.972   3.759  -1.169  0.00  0.00    +0.023 HD
ENDBRANCH  27  33
ENDBRANCH  15  27
ENDBRANCH  11  15
ENDBRANCH   8  12
ENDBRANCH   3   8
ENDBRANCH   1   5
BRANCH   1  37
ATOM     37  N   UNL     1       0.884  -0.423   2.706  0.00  0.00    -0.308 N 
ATOM     38  C   UNL     1       1.958   0.377   3.220  0.00  0.00    +0.234 C 
ATOM     39  O   UNL     1       1.793   1.614   3.409  0.00  0.00    -0.274 OA
ATOM     40  H   UNL     1       1.051  -1.447   2.577  0.00  0.00    +0.149 HD
BRANCH  38  41
ATOM     41  C   UNL     1       3.309  -0.254   3.432  0.00  0.00    +0.108 C 
ATOM     42  H   UNL     1       3.147  -1.245   3.911  0.00  0.00    +0.060 HD
BRANCH  41  43
ATOM     43  N   UNL     1       3.957  -0.411   2.128  0.00  0.00    -0.298 N 
ATOM     44  C   UNL     1       3.996  -1.667   1.432  0.00  0.00    +0.263 C 
ATOM     45  O   UNL     1       3.843  -2.744   2.069  0.00  0.00    -0.269 OA
ATOM     46  H   UNL     1       4.247   0.457   1.622  0.00  0.00    +0.150 HD
BRANCH  44  47
ATOM     47  C   UNL     1       4.209  -1.702  -0.030  0.00  0.00    +0.126 A 
ATOM     48  C   UNL     1       4.425  -2.917  -0.702  0.00  0.00    -0.031 A 
ATOM     49  C   UNL     1       4.593  -2.921  -2.088  0.00  0.00    -0.050 A 
ATOM     50  C   UNL     1       4.538  -1.718  -2.800  0.00  0.00    +0.000 A 
ATOM     51  C   UNL     1       4.681  -1.688  -4.195  0.00  0.00    -0.053 A 
ATOM     52  C   UNL     1       4.603  -0.470  -4.879  0.00  0.00    -0.061 A 
ATOM     53  C   UNL     1       4.383   0.719  -4.176  0.00  0.00    -0.060 A 
ATOM     54  C   UNL     1       4.242   0.698  -2.785  0.00  0.00    -0.036 A 
ATOM     55  C   UNL     1       4.318  -0.516  -2.093  0.00  0.00    +0.072 A 
ATOM     56  N   UNL     1       4.162  -0.543  -0.743  0.00  0.00    -0.242 NA
ATOM     57  H   UNL     1       4.461  -3.855  -0.162  0.00  0.00    +0.064 HD
ATOM     58  H   UNL     1       4.756  -3.861  -2.602  0.00  0.00    +0.062 HD
ATOM     59  H   UNL     1       4.848  -2.601  -4.754  0.00  0.00    +0.062 HD
ATOM     60  H   UNL     1       4.711  -0.448  -5.955  0.00  0.00    +0.062 HD
ATOM     61  H   UNL     1       4.321   1.658  -4.710  0.00  0.00    +0.062 HD
ATOM     62  H   UNL     1       4.067   1.623  -2.249  0.00  0.00    +0.064 HD
ENDBRANCH  44  47
ENDBRANCH  41  43
BRANCH  41  63
ATOM     63  C   UNL     1       4.200   0.578   4.374  0.00  0.00    +0.051 C 
ATOM     64  H   UNL     1       4.427   1.566   3.918  0.00  0.00    +0.038 HD
ATOM     65  H   UNL     1       3.659   0.763   5.329  0.00  0.00    +0.038 HD
BRANCH  63  66
ATOM     66  C   UNL     1       5.482  -0.141   4.676  0.00  0.00    +0.213 C 
ATOM     67  N   UNL     1       6.632   0.053   3.852  0.00  0.00    -0.329 N 
ATOM     68  O   UNL     1       5.534  -0.951   5.639  0.00  0.00    -0.276 OA
ATOM     69  H   UNL     1       7.518  -0.462   4.054  0.00  0.00    +0.145 HD
ATOM     70  H   UNL     1       6.601   0.706   3.037  0.00  0.00    +0.145 HD
ENDBRANCH  63  66
ENDBRANCH  41  63
ENDBRANCH  38  41
ENDBRANCH   1  37
BRANCH   1  71
ATOM     71  C   UNL     1      -1.107  -0.792   1.300  0.00  0.00    -0.007 C 
ATOM     72  H   UNL     1      -1.273  -1.774   1.795  0.00  0.00    +0.033 HD
ATOM     73  H   UNL     1      -2.111  -0.391   1.057  0.00  0.00    +0.033 HD
BRANCH  71  74
ATOM     74  C   UNL     1      -0.339  -0.968   0.013  0.00  0.00    -0.046 A 
ATOM     75  C   UNL     1      -0.276   0.079  -0.923  0.00  0.00    -0.059 A 
ATOM     76  C   UNL     1       0.408  -0.093  -2.130  0.00  0.00    -0.062 A 
ATOM     77  C   UNL     1       1.032  -1.311  -2.413  0.00  0.00    -0.062 A 
ATOM     78  C   UNL     1       0.988  -2.352  -1.482  0.00  0.00    -0.062 A 
ATOM     79  C   UNL     1       0.310  -2.182  -0.271  0.00  0.00    -0.059 A 
ATOM     80  H   UNL     1      -0.764   1.024  -0.722  0.00  0.00    +0.062 HD
ATOM     81  H   UNL     1       0.449   0.715  -2.849  0.00  0.00    +0.062 HD
ATOM     82  H   UNL     1       1.554  -1.445  -3.351  0.00  0.00    +0.062 HD
ATOM     83  H   UNL     1       1.479  -3.291  -1.700  0.00  0.00    +0.062 HD
ATOM     84  H   UNL     1       0.284  -2.999   0.439  0.00  0.00    +0.062 HD
ENDBRANCH  71  74
ENDBRANCH   1  71
TORSDOF 18
