REMARK  Name = 
REMARK  18 active torsions:
REMARK  status: ('A' for Active; 'I' for Inactive)
REMARK    1  A    between atoms: C_1  and  C_2
REMARK    2  A    between atoms: N_4  and  C_5
REMARK    3  A    between atoms: C_5  and  C_6
REMARK    4  A    between atoms: C_5  and  C_10
REMARK    5  A    between atoms: C_6  and  C_7
REMARK    6  A    between atoms: N_12  and  C_13
REMARK    7  A    between atoms: C_13  and  C_14
REMARK    8  A    between atoms: C_13  and  C_22
REMARK    9  A    between atoms: C_14  and  S_15
REMARK   10  A    between atoms: S_15  and  C_16
REMARK   11  A    between atoms: C_22  and  O_23
REMARK   12  A    between atoms: C_22  and  C_24
REMARK   13  A    between atoms: C_24  and  C_25
REMARK   14  A    between atoms: C_30  and  C_31
REMARK   15  A    between atoms: N_33  and  C_34
REMARK   16  A    between atoms: C_34  and  C_35
REMARK   17  A    between atoms: C_34  and  C_36
REMARK   18  A    between atoms: C_34  and  C_37
REMARK                            x       y       z     vdW  Elec       q    Type
REMARK                         _______ _______ _______ _____ _____    ______ ____
ROOT
ATOM      1  C   UNL     1      -0.513  -0.177   0.304  0.00  0.00    +0.059 C 
ATOM      2  H   UNL     1       0.396  -0.353  -0.311  0.00  0.00    +0.053 HD
ENDROOT
BRANCH   1   5
ATOM      3  C   UNL     1      -1.408  -2.346  -0.682  0.00  0.00    +0.234 C 
ATOM      4  O   UNL     1      -0.249  -2.840  -0.721  0.00  0.00    -0.274 OA
ATOM      5  N   UNL     1      -1.604  -0.993  -0.244  0.00  0.00    -0.308 N 
ATOM      6  H   UNL     1      -2.569  -0.593  -0.290  0.00  0.00    +0.149 HD
BRANCH   3   7
ATOM      7  C   UNL     1      -2.582  -3.183  -1.113  0.00  0.00    +0.108 C 
ATOM      8  H   UNL     1      -2.259  -4.245  -1.199  0.00  0.00    +0.060 HD
BRANCH   7  11
ATOM      9  C   UNL     1      -3.533  -3.692   1.184  0.00  0.00    +0.211 C 
ATOM     10  O   UNL     1      -2.512  -4.370   1.484  0.00  0.00    -0.276 OA
ATOM     11  N   UNL     1      -3.650  -3.089  -0.112  0.00  0.00    -0.304 N 
ATOM     12  H   UNL     1      -4.504  -2.523  -0.317  0.00  0.00    +0.149 HD
BRANCH   9  13
ATOM     13  C   UNL     1      -4.606  -3.485   2.202  0.00  0.00    +0.012 C 
ATOM     14  H   UNL     1      -5.599  -3.671   1.744  0.00  0.00    +0.032 HD
ATOM     15  H   UNL     1      -4.471  -4.179   3.058  0.00  0.00    +0.032 HD
ATOM     16  H   UNL     1      -4.564  -2.439   2.573  0.00  0.00    +0.032 HD
ENDBRANCH   9  13
ENDBRANCH   7  11
BRANCH   7  17
ATOM     17  C   UNL     1      -3.073  -2.717  -2.496  0.00  0.00    +0.051 C 
ATOM     18  H   UNL     1      -3.456  -1.675  -2.438  0.00  0.00    +0.038 HD
ATOM     19  H   UNL     1      -2.222  -2.719  -3.212  0.00  0.00    +0.038 HD
BRANCH  17  20
ATOM     20  C   UNL     1      -4.142  -3.626  -3.028  0.00  0.00    +0.213 C 
ATOM     21  N   UNL     1      -5.519  -3.258  -2.942  0.00  0.00    -0.329 N 
ATOM     22  O   UNL     1      -3.824  -4.737  -3.532  0.00  0.00    -0.276 OA
ATOM     23  H   UNL     1      -5.804  -2.344  -2.525  0.00  0.00    +0.145 HD
ATOM     24  H   UNL     1      -6.259  -3.901  -3.300  0.00  0.00    +0.145 HD
ENDBRANCH  17  20
ENDBRANCH   7  17
ENDBRANCH   3   7
ENDBRANCH   1   5
BRANCH   1  25
ATOM     25  C   UNL     1      -0.877   1.317   0.183  0.00  0.00    +0.019 C 
ATOM     26  H   UNL     1      -0.145   1.942   0.726  0.00  0.00    +0.040 HD
ATOM     27  H   UNL     1      -1.877   1.512   0.628  0.00  0.00    +0.040 HD
BRANCH  25  28
ATOM     28  S   UNL     1      -0.901   1.827  -1.570  0.00  0.00    -0.123 S 
BRANCH  28  29
ATOM     29  C   UNL     1      -0.925   3.578  -1.181  0.00  0.00    +0.008 A 
ATOM     30  C   UNL     1       0.280   4.281  -1.052  0.00  0.00    -0.048 A 
ATOM     31  C   UNL     1       0.266   5.639  -0.721  0.00  0.00    -0.061 A 
ATOM     32  C   UNL     1      -0.952   6.299  -0.526  0.00  0.00    -0.062 A 
ATOM     33  C   UNL     1      -2.156   5.600  -0.661  0.00  0.00    -0.061 A 
ATOM     34  C   UNL     1      -2.143   4.240  -0.989  0.00  0.00    -0.048 A 
ATOM     35  H   UNL     1       1.225   3.775  -1.201  0.00  0.00    +0.063 HD
ATOM     36  H   UNL     1       1.197   6.180  -0.615  0.00  0.00    +0.062 HD
ATOM     37  H   UNL     1      -0.963   7.350  -0.269  0.00  0.00    +0.062 HD
ATOM     38  H   UNL     1      -3.098   6.111  -0.510  0.00  0.00    +0.062 HD
ATOM     39  H   UNL     1      -3.078   3.702  -1.085  0.00  0.00    +0.063 HD
ENDBRANCH  28  29
ENDBRANCH  25  28
ENDBRANCH   1  25
BRANCH   1  40
ATOM     40  C   UNL     1      -0.221  -0.614   1.771  0.00  0.00    +0.078 C 
ATOM     41  H   UNL     1      -0.414  -1.710   1.851  0.00  0.00    +0.062 HD
BRANCH  40  42
ATOM     42  C   UNL     1       1.259  -0.447   2.189  0.00  0.00    +0.001 C 
ATOM     43  H   UNL     1       1.389  -0.901   3.196  0.00  0.00    +0.034 HD
ATOM     44  H   UNL     1       1.887  -1.059   1.515  0.00  0.00    +0.034 HD
BRANCH  42  45
ATOM     45  C   UNL     1       1.731   0.995   2.252  0.00  0.00    -0.033 A 
ATOM     46  C   UNL     1       1.336   1.776   3.353  0.00  0.00    -0.058 A 
ATOM     47  C   UNL     1       1.642   3.137   3.411  0.00  0.00    -0.061 A 
ATOM     48  C   UNL     1       2.349   3.739   2.373  0.00  0.00    -0.061 A 
ATOM     49  C   UNL     1       2.769   2.980   1.281  0.00  0.00    -0.049 A 
ATOM     50  C   UNL     1       2.484   1.606   1.212  0.00  0.00    +0.040 A 
ATOM     51  H   UNL     1       0.769   1.334   4.163  0.00  0.00    +0.062 HD
ATOM     52  H   UNL     1       1.321   3.727   4.260  0.00  0.00    +0.062 HD
ATOM     53  H   UNL     1       2.577   4.796   2.416  0.00  0.00    +0.062 HD
ATOM     54  H   UNL     1       3.328   3.464   0.489  0.00  0.00    +0.063 HD
BRANCH  50  55
ATOM     55  C   UNL     1       2.969   0.860   0.036  0.00  0.00    +0.245 C 
ATOM     56  O   UNL     1       2.627   1.245  -1.114  0.00  0.00    -0.270 OA
ATOM     57  N   UNL     1       3.871  -0.248   0.204  0.00  0.00    -0.307 N 
ATOM     58  H   UNL     1       4.234  -0.411   1.172  0.00  0.00    +0.150 HD
BRANCH  57  59
ATOM     59  C   UNL     1       4.277  -1.178  -0.868  0.00  0.00    +0.026 C 
BRANCH  59  60
ATOM     60  C   UNL     1       5.179  -2.274  -0.265  0.00  0.00    -0.044 C 
ATOM     61  H   UNL     1       6.088  -1.824   0.188  0.00  0.00    +0.025 HD
ATOM     62  H   UNL     1       5.499  -3.000  -1.044  0.00  0.00    +0.025 HD
ATOM     63  H   UNL     1       4.635  -2.831   0.528  0.00  0.00    +0.025 HD
ENDBRANCH  59  60
BRANCH  59  64
ATOM     64  C   UNL     1       5.076  -0.427  -1.951  0.00  0.00    -0.044 C 
ATOM     65  H   UNL     1       5.921   0.129  -1.490  0.00  0.00    +0.025 HD
ATOM     66  H   UNL     1       5.489  -1.141  -2.696  0.00  0.00    +0.025 HD
ATOM     67  H   UNL     1       4.441   0.295  -2.501  0.00  0.00    +0.025 HD
ENDBRANCH  59  64
BRANCH  59  68
ATOM     68  C   UNL     1       3.037  -1.850  -1.486  0.00  0.00    -0.044 C 
ATOM     69  H   UNL     1       2.383  -1.111  -1.992  0.00  0.00    +0.025 HD
ATOM     70  H   UNL     1       2.444  -2.357  -0.695  0.00  0.00    +0.025 HD
ATOM     71  H   UNL     1       3.337  -2.608  -2.241  0.00  0.00    +0.025 HD
ENDBRANCH  59  68
ENDBRANCH  57  59
ENDBRANCH  50  55
ENDBRANCH  42  45
ENDBRANCH  40  42
BRANCH  40  72
ATOM     72  O   UNL     1      -1.064   0.044   2.683  0.00  0.00    -0.390 OA
ATOM     73  H   UNL     1      -1.974  -0.332   2.555  0.00  0.00    +0.210 HD
ENDBRANCH  40  72
ENDBRANCH   1  40
TORSDOF 18
