REMARK  Name = 
REMARK  7 active torsions:
REMARK  status: ('A' for Active; 'I' for Inactive)
REMARK    1  A    between atoms: O_1  and  C_2
REMARK    2  A    between atoms: C_14  and  C_15
REMARK    3  A    between atoms: C_15  and  C_16
REMARK    4  A    between atoms: C_15  and  C_19
REMARK    5  A    between atoms: C_23  and  N_24
REMARK    6  A    between atoms: N_24  and  S_25
REMARK    7  A    between atoms: S_25  and  C_28
REMARK                            x       y       z     vdW  Elec       q    Type
REMARK                         _______ _______ _______ _____ _____    ______ ____
ROOT
ATOM      1  C   UNL     1       0.294  -1.365  -0.550  0.00  0.00    +0.022 C 
ATOM      2  H   UNL     1       0.990  -0.984  -1.319  0.00  0.00    +0.040 HD
ENDROOT
BRANCH   1  15
ATOM      3  C   UNL     1      -1.486  -0.220  -2.032  0.00  0.00    +0.292 A 
ATOM      4  O   UNL     1      -2.711   0.268  -2.182  0.00  0.00    -0.429 OA
ATOM      5  C   UNL     1      -3.680   0.135  -1.286  0.00  0.00    +0.116 A 
ATOM      6  C   UNL     1      -4.983   0.836  -1.568  0.00  0.00    +0.006 C 
ATOM      7  C   UNL     1      -5.038   2.179  -0.813  0.00  0.00    -0.046 C 
ATOM      8  C   UNL     1      -6.144   2.269   0.252  0.00  0.00    -0.053 C 
ATOM      9  C   UNL     1      -6.282   1.069   1.211  0.00  0.00    -0.053 C 
ATOM     10  C   UNL     1      -4.953   0.450   1.698  0.00  0.00    -0.049 C 
ATOM     11  C   UNL     1      -4.555  -0.823   0.916  0.00  0.00    -0.021 C 
ATOM     12  C   UNL     1      -3.447  -0.581  -0.095  0.00  0.00    +0.038 A 
ATOM     13  C   UNL     1      -2.150  -1.081   0.128  0.00  0.00    +0.196 A 
ATOM     14  O   UNL     1      -1.898  -1.706   1.195  0.00  0.00    -0.287 OA
ATOM     15  C   UNL     1      -1.130  -0.886  -0.831  0.00  0.00    +0.087 A 
ATOM     16  H   UNL     1      -5.042   1.038  -2.660  0.00  0.00    +0.034 HD
ATOM     17  H   UNL     1      -5.849   0.181  -1.345  0.00  0.00    +0.034 HD
ATOM     18  H   UNL     1      -5.214   2.994  -1.549  0.00  0.00    +0.027 HD
ATOM     19  H   UNL     1      -4.060   2.420  -0.339  0.00  0.00    +0.027 HD
ATOM     20  H   UNL     1      -5.959   3.184   0.856  0.00  0.00    +0.027 HD
ATOM     21  H   UNL     1      -7.120   2.417  -0.260  0.00  0.00    +0.027 HD
ATOM     22  H   UNL     1      -6.941   0.300   0.754  0.00  0.00    +0.027 HD
ATOM     23  H   UNL     1      -6.842   1.430   2.102  0.00  0.00    +0.027 HD
ATOM     24  H   UNL     1      -5.097   0.156   2.761  0.00  0.00    +0.027 HD
ATOM     25  H   UNL     1      -4.133   1.200   1.706  0.00  0.00    +0.027 HD
ATOM     26  H   UNL     1      -4.243  -1.593   1.654  0.00  0.00    +0.032 HD
ATOM     27  H   UNL     1      -5.423  -1.288   0.403  0.00  0.00    +0.032 HD
BRANCH   3  28
ATOM     28  O   UNL     1      -0.604  -0.038  -3.101  0.00  0.00    -0.480 OA
ATOM     29  H   UNL     1       0.289  -0.497  -3.202  0.00  0.00    +0.295 HD
ENDBRANCH   3  28
ENDBRANCH   1  15
BRANCH   1  30
ATOM     30  C   UNL     1       0.828  -0.754   0.740  0.00  0.00    -0.038 A 
ATOM     31  C   UNL     1       1.020  -1.496   1.924  0.00  0.00    -0.058 A 
ATOM     32  C   UNL     1       1.567  -0.889   3.057  0.00  0.00    -0.060 A 
ATOM     33  C   UNL     1       1.960   0.450   3.016  0.00  0.00    -0.039 A 
ATOM     34  C   UNL     1       1.791   1.201   1.846  0.00  0.00    +0.048 A 
ATOM     35  C   UNL     1       1.166   0.609   0.738  0.00  0.00    -0.036 A 
ATOM     36  H   UNL     1       0.752  -2.542   1.982  0.00  0.00    +0.062 HD
ATOM     37  H   UNL     1       1.712  -1.466   3.961  0.00  0.00    +0.062 HD
ATOM     38  H   UNL     1       2.428   0.894   3.886  0.00  0.00    +0.064 HD
ATOM     39  H   UNL     1       0.974   1.198  -0.149  0.00  0.00    +0.064 HD
BRANCH  34  40
ATOM     40  N   UNL     1       2.313   2.537   1.777  0.00  0.00    -0.216 N 
ATOM     41  H   UNL     1       2.515   3.046   2.667  0.00  0.00    +0.174 HD
BRANCH  40  42
ATOM     42  S   UNL     1       2.983   3.206   0.318  0.00  0.00    +0.073 S 
ATOM     43  O   UNL     1       1.937   4.066  -0.335  0.00  0.00    -0.150 OA
ATOM     44  O   UNL     1       4.171   4.061   0.658  0.00  0.00    -0.150 OA
BRANCH  42  45
ATOM     45  C   UNL     1       3.507   1.917  -0.790  0.00  0.00    +0.116 A 
ATOM     46  C   UNL     1       2.964   1.893  -2.085  0.00  0.00    -0.034 A 
ATOM     47  C   UNL     1       3.219   0.829  -2.948  0.00  0.00    -0.059 A 
ATOM     48  C   UNL     1       4.018  -0.234  -2.536  0.00  0.00    -0.054 A 
ATOM     49  C   UNL     1       4.591  -0.232  -1.258  0.00  0.00    -0.016 A 
ATOM     50  C   UNL     1       5.390  -1.311  -0.849  0.00  0.00    -0.054 A 
ATOM     51  C   UNL     1       5.964  -1.319   0.422  0.00  0.00    -0.061 A 
ATOM     52  C   UNL     1       5.754  -0.249   1.291  0.00  0.00    -0.061 A 
ATOM     53  C   UNL     1       4.963   0.833   0.900  0.00  0.00    -0.052 A 
ATOM     54  C   UNL     1       4.356   0.857  -0.374  0.00  0.00    +0.009 A 
ATOM     55  H   UNL     1       2.312   2.687  -2.424  0.00  0.00    +0.064 HD
ATOM     56  H   UNL     1       2.778   0.820  -3.937  0.00  0.00    +0.062 HD
ATOM     57  H   UNL     1       4.188  -1.060  -3.218  0.00  0.00    +0.062 HD
ATOM     58  H   UNL     1       5.568  -2.150  -1.512  0.00  0.00    +0.062 HD
ATOM     59  H   UNL     1       6.577  -2.155   0.733  0.00  0.00    +0.062 HD
ATOM     60  H   UNL     1       6.208  -0.258   2.274  0.00  0.00    +0.062 HD
ATOM     61  H   UNL     1       4.838   1.643   1.604  0.00  0.00    +0.062 HD
ENDBRANCH  42  45
ENDBRANCH  40  42
ENDBRANCH  34  40
ENDBRANCH   1  30
BRANCH   1  62
ATOM     62  C   UNL     1       0.353  -2.910  -0.582  0.00  0.00    -0.030 C 
ATOM     63  C   UNL     1       0.699  -3.533  -1.927  0.00  0.00    -0.049 C 
ATOM     64  C   UNL     1       1.736  -3.503  -0.815  0.00  0.00    -0.049 C 
ATOM     65  H   UNL     1      -0.325  -3.520   0.053  0.00  0.00    +0.031 HD
ATOM     66  H   UNL     1       0.922  -2.835  -2.761  0.00  0.00    +0.027 HD
ATOM     67  H   UNL     1       0.258  -4.537  -2.099  0.00  0.00    +0.027 HD
ATOM     68  H   UNL     1       1.901  -4.485  -0.323  0.00  0.00    +0.027 HD
ATOM     69  H   UNL     1       2.559  -2.775  -0.979  0.00  0.00    +0.027 HD
ENDBRANCH   1  62
TORSDOF 7
