REMARK  Name = 
REMARK  15 active torsions:
REMARK  status: ('A' for Active; 'I' for Inactive)
REMARK    1  A    between atoms: C_1  and  O_2
REMARK    2  A    between atoms: O_2  and  C_3
REMARK    3  A    between atoms: C_6  and  S_7
REMARK    4  A    between atoms: S_7  and  N_10
REMARK    5  A    between atoms: N_10  and  C_11
REMARK    6  A    between atoms: N_10  and  O_31
REMARK    7  A    between atoms: C_11  and  C_12
REMARK    8  A    between atoms: C_12  and  O_13
REMARK    9  A    between atoms: C_12  and  C_14
REMARK   10  A    between atoms: C_14  and  C_15
REMARK   11  A    between atoms: C_14  and  N_22
REMARK   12  A    between atoms: C_15  and  C_16
REMARK   13  A    between atoms: C_23  and  O_25
REMARK   14  A    between atoms: O_25  and  C_26
REMARK   15  A    between atoms: O_31  and  C_32
REMARK                            x       y       z     vdW  Elec       q    Type
REMARK                         _______ _______ _______ _____ _____    ______ ____
ROOT
ATOM      1  C   UNL     1       1.680  -1.757  -0.271  0.00  0.00    +0.075 C 
ATOM      2  H   UNL     1       1.704  -2.746   0.235  0.00  0.00    +0.049 HD
ATOM      3  H   UNL     1       2.123  -1.060   0.469  0.00  0.00    +0.049 HD
ENDROOT
BRANCH   1   4
ATOM      4  C   UNL     1       0.207  -1.369  -0.593  0.00  0.00    +0.091 C 
ATOM      5  H   UNL     1       0.211  -0.641  -1.428  0.00  0.00    +0.063 HD
BRANCH   4   6
ATOM      6  O   UNL     1      -0.538  -2.479  -1.034  0.00  0.00    -0.389 OA
ATOM      7  H   UNL     1      -0.446  -3.202  -0.361  0.00  0.00    +0.210 HD
ENDBRANCH   4   6
BRANCH   4   8
ATOM      8  C   UNL     1      -0.483  -0.652   0.597  0.00  0.00    +0.057 C 
ATOM      9  H   UNL     1       0.195   0.176   0.904  0.00  0.00    +0.053 HD
BRANCH   8  10
ATOM     10  N   UNL     1      -1.763  -0.085   0.156  0.00  0.00    -0.275 N 
ATOM     11  C   UNL     1      -2.204   1.225   0.534  0.00  0.00    +0.401 C 
ATOM     12  O   UNL     1      -1.486   1.951   1.276  0.00  0.00    -0.226 OA
ATOM     13  H   UNL     1      -2.435  -0.695  -0.362  0.00  0.00    +0.152 HD
BRANCH  11  14
ATOM     14  O   UNL     1      -3.444   1.686   0.084  0.00  0.00    -0.445 OA
BRANCH  14  15
ATOM     15  C   UNL     1      -3.960   2.978   0.410  0.00  0.00    +0.130 C 
ATOM     16  C   UNL     1      -5.388   3.080  -0.032  0.00  0.00    +0.010 C 
ATOM     17  C   UNL     1      -5.271   3.646  -1.431  0.00  0.00    +0.051 C 
ATOM     18  O   UNL     1      -4.067   4.369  -1.540  0.00  0.00    -0.376 OA
ATOM     19  C   UNL     1      -3.277   4.061  -0.414  0.00  0.00    +0.085 C 
ATOM     20  H   UNL     1      -3.870   3.166   1.504  0.00  0.00    +0.076 HD
ATOM     21  H   UNL     1      -5.934   3.798   0.619  0.00  0.00    +0.032 HD
ATOM     22  H   UNL     1      -5.908   2.098  -0.023  0.00  0.00    +0.032 HD
ATOM     23  H   UNL     1      -6.132   4.312  -1.653  0.00  0.00    +0.056 HD
ATOM     24  H   UNL     1      -5.262   2.818  -2.174  0.00  0.00    +0.056 HD
ATOM     25  H   UNL     1      -2.267   3.741  -0.749  0.00  0.00    +0.060 HD
ATOM     26  H   UNL     1      -3.160   4.979   0.201  0.00  0.00    +0.060 HD
ENDBRANCH  14  15
ENDBRANCH  11  14
ENDBRANCH   8  10
BRANCH   8  27
ATOM     27  C   UNL     1      -0.706  -1.571   1.816  0.00  0.00    -0.007 C 
ATOM     28  H   UNL     1      -1.473  -2.341   1.579  0.00  0.00    +0.033 HD
ATOM     29  H   UNL     1       0.232  -2.111   2.067  0.00  0.00    +0.033 HD
BRANCH  27  30
ATOM     30  C   UNL     1      -1.134  -0.774   3.022  0.00  0.00    -0.046 A 
ATOM     31  C   UNL     1      -0.180  -0.068   3.774  0.00  0.00    -0.059 A 
ATOM     32  C   UNL     1      -0.581   0.720   4.857  0.00  0.00    -0.062 A 
ATOM     33  C   UNL     1      -1.934   0.814   5.192  0.00  0.00    -0.062 A 
ATOM     34  C   UNL     1      -2.890   0.121   4.444  0.00  0.00    -0.062 A 
ATOM     35  C   UNL     1      -2.494  -0.669   3.361  0.00  0.00    -0.059 A 
ATOM     36  H   UNL     1       0.870  -0.121   3.515  0.00  0.00    +0.062 HD
ATOM     37  H   UNL     1       0.158   1.264   5.432  0.00  0.00    +0.062 HD
ATOM     38  H   UNL     1      -2.243   1.428   6.029  0.00  0.00    +0.062 HD
ATOM     39  H   UNL     1      -3.938   0.201   4.701  0.00  0.00    +0.062 HD
ATOM     40  H   UNL     1      -3.247  -1.188   2.780  0.00  0.00    +0.062 HD
ENDBRANCH  27  30
ENDBRANCH   8  27
ENDBRANCH   4   8
ENDBRANCH   1   4
BRANCH   1  41
ATOM     41  N   UNL     1       2.554  -1.822  -1.455  0.00  0.00    -0.052 NA
BRANCH  41  42
ATOM     42  S   UNL     1       2.857  -0.254  -2.176  0.00  0.00    +0.083 S 
ATOM     43  O   UNL     1       2.020  -0.101  -3.417  0.00  0.00    -0.151 OA
ATOM     44  O   UNL     1       4.303  -0.182  -2.578  0.00  0.00    -0.151 OA
BRANCH  42  48
ATOM     45  C   UNL     1       1.942   3.172   0.728  0.00  0.00    +0.120 A 
ATOM     46  C   UNL     1       3.062   2.354   0.921  0.00  0.00    -0.018 A 
ATOM     47  C   UNL     1       3.354   1.325   0.021  0.00  0.00    -0.032 A 
ATOM     48  C   UNL     1       2.518   1.091  -1.079  0.00  0.00    +0.108 A 
ATOM     49  C   UNL     1       1.406   1.919  -1.287  0.00  0.00    -0.032 A 
ATOM     50  C   UNL     1       1.118   2.953  -0.392  0.00  0.00    -0.018 A 
ATOM     51  H   UNL     1       3.706   2.514   1.776  0.00  0.00    +0.065 HD
ATOM     52  H   UNL     1       4.217   0.695   0.194  0.00  0.00    +0.064 HD
ATOM     53  H   UNL     1       0.750   1.758  -2.132  0.00  0.00    +0.064 HD
ATOM     54  H   UNL     1       0.250   3.569  -0.575  0.00  0.00    +0.065 HD
BRANCH  45  55
ATOM     55  O   UNL     1       1.683   4.183   1.665  0.00  0.00    -0.495 OA
BRANCH  55  56
ATOM     56  C   UNL     1       0.574   5.074   1.599  0.00  0.00    +0.079 C 
ATOM     57  H   UNL     1       0.619   5.672   0.665  0.00  0.00    +0.066 HD
ATOM     58  H   UNL     1       0.612   5.765   2.466  0.00  0.00    +0.066 HD
ATOM     59  H   UNL     1      -0.379   4.504   1.641  0.00  0.00    +0.066 HD
ENDBRANCH  55  56
ENDBRANCH  45  55
ENDBRANCH  42  48
ENDBRANCH  41  42
BRANCH  41  60
ATOM     60  O   UNL     1       1.974  -2.619  -2.395  0.00  0.00    -0.273 OA
BRANCH  60  61
ATOM     61  C   UNL     1       2.901  -3.639  -2.694  0.00  0.00    +0.082 C 
ATOM     62  C   UNL     1       2.535  -4.307  -4.009  0.00  0.00    -0.025 C 
ATOM     63  C   UNL     1       3.065  -5.731  -3.907  0.00  0.00    -0.051 C 
ATOM     64  C   UNL     1       3.241  -6.029  -2.418  0.00  0.00    -0.051 C 
ATOM     65  C   UNL     1       2.848  -4.763  -1.667  0.00  0.00    -0.025 C 
ATOM     66  H   UNL     1       3.944  -3.247  -2.781  0.00  0.00    +0.062 HD
ATOM     67  H   UNL     1       1.428  -4.334  -4.128  0.00  0.00    +0.029 HD
ATOM     68  H   UNL     1       2.980  -3.768  -4.873  0.00  0.00    +0.029 HD
ATOM     69  H   UNL     1       4.047  -5.805  -4.425  0.00  0.00    +0.027 HD
ATOM     70  H   UNL     1       2.357  -6.448  -4.377  0.00  0.00    +0.027 HD
ATOM     71  H   UNL     1       4.303  -6.281  -2.205  0.00  0.00    +0.027 HD
ATOM     72  H   UNL     1       2.601  -6.882  -2.106  0.00  0.00    +0.027 HD
ATOM     73  H   UNL     1       3.538  -4.564  -0.819  0.00  0.00    +0.029 HD
ATOM     74  H   UNL     1       1.811  -4.873  -1.277  0.00  0.00    +0.029 HD
ENDBRANCH  60  61
ENDBRANCH  41  60
ENDBRANCH   1  41
TORSDOF 15
