REMARK  Name = 
REMARK  17 active torsions:
REMARK  status: ('A' for Active; 'I' for Inactive)
REMARK    1  A    between atoms: C_1  and  C_2
REMARK    2  A    between atoms: C_2  and  C_3
REMARK    3  A    between atoms: C_2  and  C_4
REMARK    4  A    between atoms: C_4  and  C_5
REMARK    5  A    between atoms: C_5  and  C_6
REMARK    6  A    between atoms: C_6  and  C_7
REMARK    7  A    between atoms: C_10  and  O_11
REMARK    8  A    between atoms: C_17  and  S_18
REMARK    9  A    between atoms: S_18  and  C_19
REMARK   10  A    between atoms: C_21  and  C_22
REMARK   11  A    between atoms: C_23  and  N_24
REMARK   12  A    between atoms: C_25  and  C_27
REMARK   13  A    between atoms: C_34  and  C_35
REMARK   14  A    between atoms: C_35  and  C_36
REMARK   15  A    between atoms: C_35  and  C_37
REMARK   16  A    between atoms: C_35  and  C_38
REMARK   17  A    between atoms: C_39  and  O_40
REMARK                            x       y       z     vdW  Elec       q    Type
REMARK                         _______ _______ _______ _____ _____    ______ ____
ROOT
ATOM      1  S   UNL     1      -0.139  -2.700  -2.222  0.00  0.00    -0.079 S 
ENDROOT
BRANCH   1   6
ATOM      2  C   UNL     1      -2.751   0.461   0.136  0.00  0.00    +0.123 C 
ATOM      3  C   UNL     1      -3.076   0.245  -1.377  0.00  0.00    +0.051 C 
ATOM      4  C   UNL     1      -2.077  -0.630  -2.076  0.00  0.00    +0.180 C 
ATOM      5  O   UNL     1      -2.028  -0.613  -3.335  0.00  0.00    -0.291 OA
ATOM      6  C   UNL     1      -1.232  -1.571  -1.319  0.00  0.00    +0.135 C 
ATOM      7  C   UNL     1      -1.347  -1.621   0.014  0.00  0.00    +0.297 C 
ATOM      8  O   UNL     1      -2.183  -0.731   0.701  0.00  0.00    -0.456 OA
ATOM      9  H   UNL     1      -4.061  -0.244  -1.514  0.00  0.00    +0.038 HD
ATOM     10  H   UNL     1      -3.150   1.226  -1.896  0.00  0.00    +0.038 HD
BRANCH   2  11
ATOM     11  C   UNL     1      -4.098   0.761   0.872  0.00  0.00    -0.008 C 
ATOM     12  H   UNL     1      -3.925   1.250   1.848  0.00  0.00    +0.031 HD
ATOM     13  H   UNL     1      -4.693   1.483   0.269  0.00  0.00    +0.031 HD
BRANCH  11  14
ATOM     14  C   UNL     1      -4.946  -0.494   1.157  0.00  0.00    -0.024 C 
ATOM     15  H   UNL     1      -4.409  -1.153   1.874  0.00  0.00    +0.031 HD
ATOM     16  H   UNL     1      -5.110  -1.091   0.237  0.00  0.00    +0.031 HD
BRANCH  14  17
ATOM     17  C   UNL     1      -6.279  -0.108   1.741  0.00  0.00    -0.047 A 
ATOM     18  C   UNL     1      -7.369   0.163   0.898  0.00  0.00    -0.055 A 
ATOM     19  C   UNL     1      -8.597   0.555   1.438  0.00  0.00    -0.020 A 
ATOM     20  C   UNL     1      -8.745   0.692   2.825  0.00  0.00    +0.117 A 
ATOM     21  C   UNL     1      -7.658   0.437   3.667  0.00  0.00    -0.020 A 
ATOM     22  C   UNL     1      -6.429   0.044   3.129  0.00  0.00    -0.055 A 
ATOM     23  H   UNL     1      -7.266   0.071  -0.177  0.00  0.00    +0.062 HD
ATOM     24  H   UNL     1      -9.432   0.756   0.778  0.00  0.00    +0.065 HD
ATOM     25  H   UNL     1      -7.765   0.547   4.738  0.00  0.00    +0.065 HD
ATOM     26  H   UNL     1      -5.593  -0.139   3.794  0.00  0.00    +0.062 HD
BRANCH  20  27
ATOM     27  O   UNL     1      -9.964   1.083   3.374  0.00  0.00    -0.507 OA
ATOM     28  H   UNL     1     -10.770   1.276   2.791  0.00  0.00    +0.292 HD
ENDBRANCH  20  27
ENDBRANCH  14  17
ENDBRANCH  11  14
ENDBRANCH   2  11
BRANCH   2  29
ATOM     29  C   UNL     1      -1.756   1.672   0.357  0.00  0.00    -0.006 C 
ATOM     30  H   UNL     1      -2.314   2.615   0.166  0.00  0.00    +0.033 HD
BRANCH  29  31
ATOM     31  C   UNL     1      -1.212   1.740   1.802  0.00  0.00    -0.059 C 
ATOM     32  H   UNL     1      -2.011   1.893   2.550  0.00  0.00    +0.023 HD
ATOM     33  H   UNL     1      -0.519   2.602   1.910  0.00  0.00    +0.023 HD
ATOM     34  H   UNL     1      -0.652   0.816   2.058  0.00  0.00    +0.023 HD
ENDBRANCH  29  31
BRANCH  29  35
ATOM     35  C   UNL     1      -0.545   1.681  -0.596  0.00  0.00    -0.059 C 
ATOM     36  H   UNL     1       0.094   2.568  -0.396  0.00  0.00    +0.023 HD
ATOM     37  H   UNL     1       0.075   0.775  -0.447  0.00  0.00    +0.023 HD
ATOM     38  H   UNL     1      -0.857   1.758  -1.657  0.00  0.00    +0.023 HD
ENDBRANCH  29  35
ENDBRANCH   2  29
BRANCH   7  39
ATOM     39  O   UNL     1      -0.657  -2.577   0.745  0.00  0.00    -0.479 OA
ATOM     40  H   UNL     1      -0.746  -2.620   1.752  0.00  0.00    +0.295 HD
ENDBRANCH   7  39
ENDBRANCH   1   6
BRANCH   1  41
ATOM     41  C   UNL     1       1.357  -1.693  -2.055  0.00  0.00    +0.017 A 
ATOM     42  C   UNL     1       1.322  -0.431  -2.668  0.00  0.00    -0.043 A 
ATOM     43  C   UNL     1       2.319   0.519  -2.439  0.00  0.00    -0.028 A 
ATOM     44  C   UNL     1       3.396   0.194  -1.602  0.00  0.00    +0.037 A 
ATOM     45  C   UNL     1       3.507  -1.109  -1.095  0.00  0.00    -0.035 A 
ATOM     46  C   UNL     1       2.532  -2.109  -1.351  0.00  0.00    -0.026 A 
ATOM     47  H   UNL     1       0.479  -0.166  -3.288  0.00  0.00    +0.063 HD
ATOM     48  H   UNL     1       4.401  -1.324  -0.533  0.00  0.00    +0.064 HD
BRANCH  44  49
ATOM     49  N   UNL     1       4.424   1.162  -1.333  0.00  0.00    -0.281 N 
ATOM     50  C   UNL     1       4.921   1.426  -0.008  0.00  0.00    +0.250 C 
ATOM     51  O   UNL     1       4.467   0.776   0.974  0.00  0.00    -0.270 OA
ATOM     52  H   UNL     1       4.791   1.714  -2.138  0.00  0.00    +0.155 HD
BRANCH  50  53
ATOM     53  C   UNL     1       5.961   2.455   0.231  0.00  0.00    +0.055 A 
ATOM     54  C   UNL     1       6.824   2.342   1.334  0.00  0.00    -0.047 A 
ATOM     55  C   UNL     1       7.801   3.312   1.565  0.00  0.00    -0.043 A 
ATOM     56  C   UNL     1       7.904   4.399   0.697  0.00  0.00    +0.028 A 
ATOM     57  N   UNL     1       7.054   4.509  -0.358  0.00  0.00    -0.263 NA
ATOM     58  C   UNL     1       6.096   3.576  -0.608  0.00  0.00    +0.040 A 
ATOM     59  H   UNL     1       6.751   1.498   2.009  0.00  0.00    +0.063 HD
ATOM     60  H   UNL     1       8.472   3.222   2.409  0.00  0.00    +0.063 HD
ATOM     61  H   UNL     1       8.655   5.158   0.864  0.00  0.00    +0.083 HD
ATOM     62  H   UNL     1       5.429   3.733  -1.444  0.00  0.00    +0.084 HD
ENDBRANCH  50  53
ENDBRANCH  44  49
BRANCH  43  63
ATOM     63  C   UNL     1       2.203   1.887  -3.058  0.00  0.00    -0.038 C 
ATOM     64  H   UNL     1       1.213   2.037  -3.538  0.00  0.00    +0.028 HD
ATOM     65  H   UNL     1       2.990   2.015  -3.829  0.00  0.00    +0.028 HD
ATOM     66  H   UNL     1       2.322   2.667  -2.276  0.00  0.00    +0.028 HD
ENDBRANCH  43  63
BRANCH  46  67
ATOM     67  C   UNL     1       2.830  -3.602  -0.997  0.00  0.00    -0.012 C 
BRANCH  67  68
ATOM     68  C   UNL     1       4.257  -3.813  -0.418  0.00  0.00    -0.056 C 
ATOM     69  H   UNL     1       4.375  -3.289   0.556  0.00  0.00    +0.024 HD
ATOM     70  H   UNL     1       4.457  -4.890  -0.228  0.00  0.00    +0.024 HD
ATOM     71  H   UNL     1       5.034  -3.459  -1.130  0.00  0.00    +0.024 HD
ENDBRANCH  67  68
BRANCH  67  72
ATOM     72  C   UNL     1       2.756  -4.472  -2.274  0.00  0.00    -0.056 C 
ATOM     73  H   UNL     1       1.734  -4.532  -2.691  0.00  0.00    +0.024 HD
ATOM     74  H   UNL     1       3.427  -4.061  -3.060  0.00  0.00    +0.024 HD
ATOM     75  H   UNL     1       3.070  -5.517  -2.061  0.00  0.00    +0.024 HD
ENDBRANCH  67  72
BRANCH  67  76
ATOM     76  C   UNL     1       1.849  -4.139   0.063  0.00  0.00    -0.056 C 
ATOM     77  H   UNL     1       2.183  -5.126   0.451  0.00  0.00    +0.024 HD
ATOM     78  H   UNL     1       1.791  -3.437   0.922  0.00  0.00    +0.024 HD
ATOM     79  H   UNL     1       0.839  -4.311  -0.348  0.00  0.00    +0.024 HD
ENDBRANCH  67  76
ENDBRANCH  46  67
ENDBRANCH   1  41
TORSDOF 17
