REMARK  Name = 
REMARK  9 active torsions:
REMARK  status: ('A' for Active; 'I' for Inactive)
REMARK    1  A    between atoms: C_1  and  C_2
REMARK    2  A    between atoms: C_2  and  C_3
REMARK    3  A    between atoms: C_3  and  C_4
REMARK    4  A    between atoms: C_3  and  C_22
REMARK    5  A    between atoms: C_8  and  N_9
REMARK    6  A    between atoms: N_9  and  S_10
REMARK    7  A    between atoms: S_10  and  C_13
REMARK    8  A    between atoms: C_16  and  C_17
REMARK    9  A    between atoms: C_23  and  O_24
REMARK                            x       y       z     vdW  Elec       q    Type
REMARK                         _______ _______ _______ _____ _____    ______ ____
ROOT
ATOM      1  C   UNL     1      -0.427   1.646   0.009  0.00  0.00    +0.019 C 
ATOM      2  H   UNL     1      -0.067   1.828   1.042  0.00  0.00    +0.040 HD
ENDROOT
BRANCH   1   3
ATOM      3  C   UNL     1      -1.483   0.531   0.062  0.00  0.00    +0.086 A 
ATOM      4  C   UNL     1      -2.291   0.331   1.210  0.00  0.00    +0.134 A 
ATOM      5  C   UNL     1      -3.200  -0.746   1.248  0.00  0.00    +0.033 A 
ATOM      6  C   UNL     1      -4.107  -0.930   2.448  0.00  0.00    -0.021 C 
ATOM      7  C   UNL     1      -5.458  -0.229   2.207  0.00  0.00    -0.049 C 
ATOM      8  C   UNL     1      -6.669  -1.177   2.165  0.00  0.00    -0.053 C 
ATOM      9  C   UNL     1      -6.519  -2.455   1.315  0.00  0.00    -0.053 C 
ATOM     10  C   UNL     1      -5.787  -2.273  -0.034  0.00  0.00    -0.046 C 
ATOM     11  C   UNL     1      -4.304  -2.704   0.015  0.00  0.00    +0.006 C 
ATOM     12  C   UNL     1      -3.346  -1.542   0.093  0.00  0.00    +0.116 A 
ATOM     13  O   UNL     1      -2.618  -1.282  -0.985  0.00  0.00    -0.427 OA
ATOM     14  C   UNL     1      -1.723  -0.307  -1.051  0.00  0.00    +0.344 A 
ATOM     15  O   UNL     1      -1.097  -0.145  -2.132  0.00  0.00    -0.245 OA
ATOM     16  H   UNL     1      -4.225  -2.006   2.686  0.00  0.00    +0.032 HD
ATOM     17  H   UNL     1      -3.634  -0.506   3.360  0.00  0.00    +0.032 HD
ATOM     18  H   UNL     1      -5.630   0.504   3.025  0.00  0.00    +0.027 HD
ATOM     19  H   UNL     1      -5.441   0.374   1.271  0.00  0.00    +0.027 HD
ATOM     20  H   UNL     1      -6.918  -1.481   3.206  0.00  0.00    +0.027 HD
ATOM     21  H   UNL     1      -7.540  -0.599   1.785  0.00  0.00    +0.027 HD
ATOM     22  H   UNL     1      -7.546  -2.824   1.103  0.00  0.00    +0.027 HD
ATOM     23  H   UNL     1      -6.048  -3.256   1.923  0.00  0.00    +0.027 HD
ATOM     24  H   UNL     1      -5.902  -1.238  -0.424  0.00  0.00    +0.027 HD
ATOM     25  H   UNL     1      -6.297  -2.929  -0.774  0.00  0.00    +0.027 HD
ATOM     26  H   UNL     1      -4.080  -3.265  -0.919  0.00  0.00    +0.034 HD
ATOM     27  H   UNL     1      -4.096  -3.422   0.836  0.00  0.00    +0.034 HD
BRANCH   4  28
ATOM     28  O   UNL     1      -2.236   1.188   2.317  0.00  0.00    -0.506 OA
ATOM     29  H   UNL     1      -1.727   2.060   2.345  0.00  0.00    +0.292 HD
ENDBRANCH   4  28
ENDBRANCH   1   3
BRANCH   1  30
ATOM     30  C   UNL     1       0.863   1.218  -0.699  0.00  0.00    -0.038 A 
ATOM     31  C   UNL     1       1.472   1.971  -1.725  0.00  0.00    -0.058 A 
ATOM     32  C   UNL     1       2.658   1.532  -2.316  0.00  0.00    -0.060 A 
ATOM     33  C   UNL     1       3.268   0.354  -1.888  0.00  0.00    -0.039 A 
ATOM     34  C   UNL     1       2.703  -0.398  -0.845  0.00  0.00    +0.048 A 
ATOM     35  C   UNL     1       1.507   0.044  -0.259  0.00  0.00    -0.036 A 
ATOM     36  H   UNL     1       1.053   2.899  -2.080  0.00  0.00    +0.062 HD
ATOM     37  H   UNL     1       3.110   2.113  -3.111  0.00  0.00    +0.062 HD
ATOM     38  H   UNL     1       4.179   0.042  -2.377  0.00  0.00    +0.064 HD
ATOM     39  H   UNL     1       1.073  -0.531   0.550  0.00  0.00    +0.064 HD
BRANCH  34  40
ATOM     40  N   UNL     1       3.312  -1.609  -0.363  0.00  0.00    -0.216 N 
ATOM     41  H   UNL     1       2.804  -2.186   0.344  0.00  0.00    +0.174 HD
BRANCH  40  42
ATOM     42  S   UNL     1       4.917  -2.121  -0.784  0.00  0.00    +0.072 S 
ATOM     43  O   UNL     1       4.945  -2.500  -2.239  0.00  0.00    -0.150 OA
ATOM     44  O   UNL     1       5.287  -3.321   0.041  0.00  0.00    -0.150 OA
BRANCH  42  45
ATOM     45  C   UNL     1       6.067  -0.830  -0.453  0.00  0.00    +0.109 A 
ATOM     46  C   UNL     1       7.149  -0.604  -1.316  0.00  0.00    -0.034 A 
ATOM     47  C   UNL     1       8.053   0.430  -1.054  0.00  0.00    -0.042 A 
ATOM     48  C   UNL     1       7.882   1.244   0.073  0.00  0.00    +0.052 A 
ATOM     49  C   UNL     1       6.804   1.016   0.939  0.00  0.00    -0.042 A 
ATOM     50  C   UNL     1       5.902  -0.019   0.677  0.00  0.00    -0.034 A 
ATOM     51  H   UNL     1       7.293  -1.225  -2.191  0.00  0.00    +0.064 HD
ATOM     52  H   UNL     1       8.883   0.596  -1.730  0.00  0.00    +0.063 HD
ATOM     53  H   UNL     1       6.662   1.638   1.815  0.00  0.00    +0.063 HD
ATOM     54  H   UNL     1       5.072  -0.185   1.353  0.00  0.00    +0.064 HD
BRANCH  48  55
ATOM     55  C   UNL     1       8.811   2.310   0.342  0.00  0.00    +0.099 C 
ATOM     56  N   UNL     1       9.558   3.167   0.558  0.00  0.00    -0.191 NA
ENDBRANCH  48  55
ENDBRANCH  42  45
ENDBRANCH  40  42
ENDBRANCH  34  40
ENDBRANCH   1  30
BRANCH   1  57
ATOM     57  C   UNL     1      -1.054   2.990  -0.448  0.00  0.00    -0.045 C 
ATOM     58  H   UNL     1      -0.277   3.783  -0.480  0.00  0.00    +0.027 HD
ATOM     59  H   UNL     1      -1.787   3.322   0.318  0.00  0.00    +0.027 HD
BRANCH  57  60
ATOM     60  C   UNL     1      -1.793   2.931  -1.790  0.00  0.00    -0.064 C 
ATOM     61  H   UNL     1      -1.157   2.503  -2.590  0.00  0.00    +0.023 HD
ATOM     62  H   UNL     1      -2.091   3.957  -2.091  0.00  0.00    +0.023 HD
ATOM     63  H   UNL     1      -2.716   2.321  -1.696  0.00  0.00    +0.023 HD
ENDBRANCH  57  60
ENDBRANCH   1  57
TORSDOF 9
