REMARK  Name = 
REMARK  9 active torsions:
REMARK  status: ('A' for Active; 'I' for Inactive)
REMARK    1  A    between atoms: C_1  and  C_2
REMARK    2  A    between atoms: C_2  and  C_3
REMARK    3  A    between atoms: C_3  and  C_4
REMARK    4  A    between atoms: C_3  and  C_22
REMARK    5  A    between atoms: C_8  and  N_9
REMARK    6  A    between atoms: N_9  and  S_10
REMARK    7  A    between atoms: S_10  and  C_13
REMARK    8  A    between atoms: C_16  and  C_17
REMARK    9  A    between atoms: C_23  and  O_24
REMARK                            x       y       z     vdW  Elec       q    Type
REMARK                         _______ _______ _______ _____ _____    ______ ____
ROOT
ATOM      1  C   UNL     1      -1.268  -1.932   1.537  0.00  0.00    +0.019 C 
ATOM      2  H   UNL     1      -1.411  -2.843   0.913  0.00  0.00    +0.040 HD
ENDROOT
BRANCH   1   3
ATOM      3  C   UNL     1      -1.472  -0.733   0.600  0.00  0.00    +0.086 A 
ATOM      4  C   UNL     1      -0.993  -0.818  -0.726  0.00  0.00    +0.134 A 
ATOM      5  C   UNL     1      -1.072   0.306  -1.583  0.00  0.00    +0.033 A 
ATOM      6  C   UNL     1      -0.578   0.234  -3.016  0.00  0.00    -0.021 C 
ATOM      7  C   UNL     1      -1.634  -0.352  -3.964  0.00  0.00    -0.049 C 
ATOM      8  C   UNL     1      -3.018   0.311  -3.857  0.00  0.00    -0.053 C 
ATOM      9  C   UNL     1      -2.995   1.838  -4.077  0.00  0.00    -0.053 C 
ATOM     10  C   UNL     1      -3.164   2.649  -2.779  0.00  0.00    -0.046 C 
ATOM     11  C   UNL     1      -1.900   2.726  -1.909  0.00  0.00    +0.006 C 
ATOM     12  C   UNL     1      -1.685   1.479  -1.083  0.00  0.00    +0.116 A 
ATOM     13  O   UNL     1      -2.112   1.517   0.173  0.00  0.00    -0.427 OA
ATOM     14  C   UNL     1      -2.017   0.502   1.018  0.00  0.00    +0.344 A 
ATOM     15  O   UNL     1      -2.422   0.674   2.196  0.00  0.00    -0.245 OA
ATOM     16  H   UNL     1       0.352  -0.367  -3.078  0.00  0.00    +0.032 HD
ATOM     17  H   UNL     1      -0.253   1.219  -3.393  0.00  0.00    +0.032 HD
ATOM     18  H   UNL     1      -1.749  -1.437  -3.755  0.00  0.00    +0.027 HD
ATOM     19  H   UNL     1      -1.264  -0.258  -5.008  0.00  0.00    +0.027 HD
ATOM     20  H   UNL     1      -3.491   0.050  -2.886  0.00  0.00    +0.027 HD
ATOM     21  H   UNL     1      -3.662  -0.147  -4.640  0.00  0.00    +0.027 HD
ATOM     22  H   UNL     1      -3.853   2.098  -4.736  0.00  0.00    +0.027 HD
ATOM     23  H   UNL     1      -2.083   2.162  -4.624  0.00  0.00    +0.027 HD
ATOM     24  H   UNL     1      -3.429   3.689  -3.071  0.00  0.00    +0.027 HD
ATOM     25  H   UNL     1      -4.021   2.261  -2.184  0.00  0.00    +0.027 HD
ATOM     26  H   UNL     1      -2.035   3.575  -1.203  0.00  0.00    +0.034 HD
ATOM     27  H   UNL     1      -1.009   3.004  -2.506  0.00  0.00    +0.034 HD
BRANCH   4  28
ATOM     28  O   UNL     1      -0.444  -2.032  -1.157  0.00  0.00    -0.506 OA
ATOM     29  H   UNL     1      -0.142  -2.222  -2.102  0.00  0.00    +0.292 HD
ENDBRANCH   4  28
ENDBRANCH   1   3
BRANCH   1  30
ATOM     30  C   UNL     1       0.152  -1.921   2.069  0.00  0.00    -0.038 A 
ATOM     31  C   UNL     1       1.050  -2.942   1.708  0.00  0.00    -0.058 A 
ATOM     32  C   UNL     1       2.388  -2.879   2.103  0.00  0.00    -0.060 A 
ATOM     33  C   UNL     1       2.849  -1.792   2.848  0.00  0.00    -0.039 A 
ATOM     34  C   UNL     1       1.964  -0.773   3.228  0.00  0.00    +0.048 A 
ATOM     35  C   UNL     1       0.616  -0.852   2.857  0.00  0.00    -0.036 A 
ATOM     36  H   UNL     1       0.720  -3.777   1.103  0.00  0.00    +0.062 HD
ATOM     37  H   UNL     1       3.074  -3.664   1.813  0.00  0.00    +0.062 HD
ATOM     38  H   UNL     1       3.893  -1.743   3.127  0.00  0.00    +0.064 HD
ATOM     39  H   UNL     1      -0.052  -0.047   3.131  0.00  0.00    +0.064 HD
BRANCH  34  40
ATOM     40  N   UNL     1       2.440   0.387   3.916  0.00  0.00    -0.216 N 
ATOM     41  H   UNL     1       1.801   0.874   4.584  0.00  0.00    +0.174 HD
BRANCH  40  42
ATOM     42  S   UNL     1       3.732   1.319   3.237  0.00  0.00    +0.072 S 
ATOM     43  O   UNL     1       3.706   2.709   3.808  0.00  0.00    -0.150 OA
ATOM     44  O   UNL     1       5.047   0.675   3.576  0.00  0.00    -0.150 OA
BRANCH  42  45
ATOM     45  C   UNL     1       3.503   1.411   1.492  0.00  0.00    +0.109 A 
ATOM     46  C   UNL     1       2.292   1.896   0.979  0.00  0.00    -0.034 A 
ATOM     47  C   UNL     1       2.077   1.936  -0.402  0.00  0.00    -0.042 A 
ATOM     48  C   UNL     1       3.071   1.487  -1.280  0.00  0.00    +0.052 A 
ATOM     49  C   UNL     1       4.281   0.998  -0.770  0.00  0.00    -0.042 A 
ATOM     50  C   UNL     1       4.496   0.959   0.612  0.00  0.00    -0.034 A 
ATOM     51  H   UNL     1       1.512   2.235   1.649  0.00  0.00    +0.064 HD
ATOM     52  H   UNL     1       1.139   2.318  -0.784  0.00  0.00    +0.063 HD
ATOM     53  H   UNL     1       5.056   0.645  -1.440  0.00  0.00    +0.063 HD
ATOM     54  H   UNL     1       5.433   0.571   0.990  0.00  0.00    +0.064 HD
BRANCH  48  55
ATOM     55  C   UNL     1       2.853   1.531  -2.701  0.00  0.00    +0.099 C 
ATOM     56  N   UNL     1       2.678   1.566  -3.845  0.00  0.00    -0.191 NA
ENDBRANCH  48  55
ENDBRANCH  42  45
ENDBRANCH  40  42
ENDBRANCH  34  40
ENDBRANCH   1  30
BRANCH   1  57
ATOM     57  C   UNL     1      -2.308  -2.077   2.675  0.00  0.00    -0.045 C 
ATOM     58  H   UNL     1      -3.327  -1.886   2.271  0.00  0.00    +0.027 HD
ATOM     59  H   UNL     1      -2.112  -1.353   3.492  0.00  0.00    +0.027 HD
BRANCH  57  60
ATOM     60  C   UNL     1      -2.297  -3.479   3.287  0.00  0.00    -0.064 C 
ATOM     61  H   UNL     1      -3.060  -3.539   4.092  0.00  0.00    +0.023 HD
ATOM     62  H   UNL     1      -2.538  -4.242   2.517  0.00  0.00    +0.023 HD
ATOM     63  H   UNL     1      -1.302  -3.703   3.727  0.00  0.00    +0.023 HD
ENDBRANCH  57  60
ENDBRANCH   1  57
TORSDOF 9
