REMARK  Name = 
REMARK  16 active torsions:
REMARK  status: ('A' for Active; 'I' for Inactive)
REMARK    1  A    between atoms: C_1  and  C_2
REMARK    2  A    between atoms: C_3  and  O_4
REMARK    3  A    between atoms: C_8  and  C_9
REMARK    4  A    between atoms: N_11  and  C_12
REMARK    5  A    between atoms: C_12  and  C_13
REMARK    6  A    between atoms: C_12  and  C_35
REMARK    7  A    between atoms: C_13  and  C_14
REMARK    8  A    between atoms: C_14  and  O_15
REMARK    9  A    between atoms: C_14  and  C_16
REMARK   10  A    between atoms: C_16  and  C_17
REMARK   11  A    between atoms: C_16  and  N_24
REMARK   12  A    between atoms: C_17  and  C_18
REMARK   13  A    between atoms: C_25  and  C_27
REMARK   14  A    between atoms: C_31  and  O_32
REMARK   15  A    between atoms: C_33  and  C_34
REMARK   16  A    between atoms: C_35  and  C_36
REMARK                            x       y       z     vdW  Elec       q    Type
REMARK                         _______ _______ _______ _____ _____    ______ ____
ROOT
ATOM      1  C   UNL     1       0.546  -0.794   0.787  0.00  0.00    +0.076 C 
ATOM      2  H   UNL     1       0.720  -1.598   0.038  0.00  0.00    +0.061 HD
ENDROOT
BRANCH   1   3
ATOM      3  C   UNL     1      -0.303   0.297   0.100  0.00  0.00    -0.006 C 
ATOM      4  H   UNL     1      -0.506   1.100   0.836  0.00  0.00    +0.031 HD
ATOM      5  H   UNL     1       0.280   0.767  -0.722  0.00  0.00    +0.031 HD
BRANCH   3   6
ATOM      6  C   UNL     1      -1.655  -0.246  -0.441  0.00  0.00    +0.030 C 
ATOM      7  H   UNL     1      -1.908  -1.214   0.044  0.00  0.00    +0.050 HD
BRANCH   6  10
ATOM      8  C   UNL     1      -3.341   0.755   1.173  0.00  0.00    +0.245 C 
ATOM      9  O   UNL     1      -2.960  -0.029   2.084  0.00  0.00    -0.270 OA
ATOM     10  N   UNL     1      -2.723   0.707  -0.123  0.00  0.00    -0.308 N 
ATOM     11  H   UNL     1      -2.920   1.483  -0.796  0.00  0.00    +0.149 HD
BRANCH   8  17
ATOM     12  C   UNL     1      -5.499   1.981   0.626  0.00  0.00    +0.003 A 
ATOM     13  C   UNL     1      -6.410   3.012   0.942  0.00  0.00    +0.120 A 
ATOM     14  C   UNL     1      -6.239   3.770   2.107  0.00  0.00    -0.020 A 
ATOM     15  C   UNL     1      -5.168   3.516   2.961  0.00  0.00    -0.058 A 
ATOM     16  C   UNL     1      -4.245   2.520   2.649  0.00  0.00    -0.049 A 
ATOM     17  C   UNL     1      -4.381   1.761   1.475  0.00  0.00    +0.043 A 
ATOM     18  H   UNL     1      -6.942   4.556   2.354  0.00  0.00    +0.065 HD
ATOM     19  H   UNL     1      -5.045   4.103   3.863  0.00  0.00    +0.062 HD
ATOM     20  H   UNL     1      -3.406   2.356   3.314  0.00  0.00    +0.063 HD
BRANCH  12  21
ATOM     21  C   UNL     1      -5.734   1.143  -0.608  0.00  0.00    -0.036 C 
ATOM     22  H   UNL     1      -5.252   1.625  -1.484  0.00  0.00    +0.028 HD
ATOM     23  H   UNL     1      -6.819   1.034  -0.814  0.00  0.00    +0.028 HD
ATOM     24  H   UNL     1      -5.334   0.116  -0.483  0.00  0.00    +0.028 HD
ENDBRANCH  12  21
BRANCH  13  25
ATOM     25  O   UNL     1      -7.487   3.281   0.096  0.00  0.00    -0.506 OA
ATOM     26  H   UNL     1      -8.155   4.015   0.302  0.00  0.00    +0.292 HD
ENDBRANCH  13  25
ENDBRANCH   8  17
ENDBRANCH   6  10
BRANCH   6  27
ATOM     27  C   UNL     1      -1.631  -0.491  -1.965  0.00  0.00    -0.009 C 
ATOM     28  H   UNL     1      -2.645  -0.805  -2.296  0.00  0.00    +0.033 HD
ATOM     29  H   UNL     1      -1.407   0.463  -2.492  0.00  0.00    +0.033 HD
BRANCH  27  30
ATOM     30  C   UNL     1      -0.649  -1.563  -2.369  0.00  0.00    -0.046 A 
ATOM     31  C   UNL     1       0.503  -1.233  -3.102  0.00  0.00    -0.059 A 
ATOM     32  C   UNL     1       1.413  -2.228  -3.472  0.00  0.00    -0.062 A 
ATOM     33  C   UNL     1       1.185  -3.556  -3.106  0.00  0.00    -0.062 A 
ATOM     34  C   UNL     1       0.039  -3.895  -2.382  0.00  0.00    -0.062 A 
ATOM     35  C   UNL     1      -0.879  -2.905  -2.020  0.00  0.00    -0.059 A 
ATOM     36  H   UNL     1       0.696  -0.207  -3.389  0.00  0.00    +0.062 HD
ATOM     37  H   UNL     1       2.298  -1.968  -4.039  0.00  0.00    +0.062 HD
ATOM     38  H   UNL     1       1.895  -4.324  -3.387  0.00  0.00    +0.062 HD
ATOM     39  H   UNL     1      -0.139  -4.925  -2.103  0.00  0.00    +0.062 HD
ATOM     40  H   UNL     1      -1.766  -3.182  -1.464  0.00  0.00    +0.062 HD
ENDBRANCH  27  30
ENDBRANCH   6  27
ENDBRANCH   3   6
ENDBRANCH   1   3
BRANCH   1  41
ATOM     41  O   UNL     1      -0.170  -1.341   1.865  0.00  0.00    -0.390 OA
ATOM     42  H   UNL     1       0.262  -2.207   2.090  0.00  0.00    +0.210 HD
ENDBRANCH   1  41
BRANCH   1  43
ATOM     43  C   UNL     1       1.936  -0.275   1.266  0.00  0.00    +0.053 C 
ATOM     44  H   UNL     1       2.455  -1.116   1.778  0.00  0.00    +0.053 HD
BRANCH  43  45
ATOM     45  N   UNL     1       2.753   0.116   0.110  0.00  0.00    -0.306 N 
ATOM     46  C   UNL     1       3.310  -0.844  -0.802  0.00  0.00    +0.245 C 
ATOM     47  O   UNL     1       3.216  -2.076  -0.545  0.00  0.00    -0.270 OA
ATOM     48  H   UNL     1       2.987   1.126  -0.027  0.00  0.00    +0.149 HD
BRANCH  46  49
ATOM     49  C   UNL     1       3.964  -0.398  -2.059  0.00  0.00    +0.043 A 
ATOM     50  C   UNL     1       3.434   0.720  -2.729  0.00  0.00    -0.049 A 
ATOM     51  C   UNL     1       3.961   1.137  -3.949  0.00  0.00    -0.058 A 
ATOM     52  C   UNL     1       5.022   0.445  -4.526  0.00  0.00    -0.020 A 
ATOM     53  C   UNL     1       5.578  -0.665  -3.879  0.00  0.00    +0.120 A 
ATOM     54  C   UNL     1       5.071  -1.086  -2.629  0.00  0.00    +0.003 A 
ATOM     55  H   UNL     1       2.581   1.253  -2.329  0.00  0.00    +0.063 HD
ATOM     56  H   UNL     1       3.533   1.991  -4.459  0.00  0.00    +0.062 HD
ATOM     57  H   UNL     1       5.413   0.772  -5.481  0.00  0.00    +0.065 HD
BRANCH  54  58
ATOM     58  C   UNL     1       5.703  -2.268  -1.934  0.00  0.00    -0.036 C 
ATOM     59  H   UNL     1       5.790  -2.077  -0.844  0.00  0.00    +0.028 HD
ATOM     60  H   UNL     1       5.088  -3.175  -2.108  0.00  0.00    +0.028 HD
ATOM     61  H   UNL     1       6.732  -2.465  -2.301  0.00  0.00    +0.028 HD
ENDBRANCH  54  58
BRANCH  53  62
ATOM     62  O   UNL     1       6.634  -1.350  -4.480  0.00  0.00    -0.506 OA
ATOM     63  H   UNL     1       7.013  -1.066  -5.376  0.00  0.00    +0.292 HD
ENDBRANCH  53  62
ENDBRANCH  46  49
ENDBRANCH  43  45
BRANCH  43  64
ATOM     64  C   UNL     1       1.873   0.899   2.279  0.00  0.00    -0.007 C 
ATOM     65  H   UNL     1       2.913   1.178   2.557  0.00  0.00    +0.033 HD
ATOM     66  H   UNL     1       1.438   1.801   1.799  0.00  0.00    +0.033 HD
BRANCH  64  67
ATOM     67  C   UNL     1       1.131   0.557   3.547  0.00  0.00    -0.046 A 
ATOM     68  C   UNL     1      -0.125   1.129   3.817  0.00  0.00    -0.059 A 
ATOM     69  C   UNL     1      -0.821   0.785   4.979  0.00  0.00    -0.062 A 
ATOM     70  C   UNL     1      -0.268  -0.125   5.884  0.00  0.00    -0.062 A 
ATOM     71  C   UNL     1       0.984  -0.692   5.628  0.00  0.00    -0.062 A 
ATOM     72  C   UNL     1       1.683  -0.352   4.466  0.00  0.00    -0.059 A 
ATOM     73  H   UNL     1      -0.569   1.837   3.129  0.00  0.00    +0.062 HD
ATOM     74  H   UNL     1      -1.790   1.224   5.179  0.00  0.00    +0.062 HD
ATOM     75  H   UNL     1      -0.808  -0.391   6.783  0.00  0.00    +0.062 HD
ATOM     76  H   UNL     1       1.412  -1.395   6.330  0.00  0.00    +0.062 HD
ATOM     77  H   UNL     1       2.651  -0.800   4.279  0.00  0.00    +0.062 HD
ENDBRANCH  64  67
ENDBRANCH  43  64
ENDBRANCH   1  43
TORSDOF 16
