REMARK  Name = 
REMARK  18 active torsions:
REMARK  status: ('A' for Active; 'I' for Inactive)
REMARK    1  A    between atoms: C_1  and  C_2
REMARK    2  A    between atoms: N_4  and  C_5
REMARK    3  A    between atoms: C_5  and  C_6
REMARK    4  A    between atoms: C_5  and  C_10
REMARK    5  A    between atoms: C_6  and  C_7
REMARK    6  A    between atoms: N_12  and  C_13
REMARK    7  A    between atoms: C_13  and  C_14
REMARK    8  A    between atoms: C_13  and  C_22
REMARK    9  A    between atoms: C_14  and  S_15
REMARK   10  A    between atoms: S_15  and  C_16
REMARK   11  A    between atoms: C_22  and  O_23
REMARK   12  A    between atoms: C_22  and  C_24
REMARK   13  A    between atoms: C_24  and  C_25
REMARK   14  A    between atoms: C_30  and  C_31
REMARK   15  A    between atoms: N_33  and  C_34
REMARK   16  A    between atoms: C_34  and  C_35
REMARK   17  A    between atoms: C_34  and  C_36
REMARK   18  A    between atoms: C_34  and  C_37
REMARK                            x       y       z     vdW  Elec       q    Type
REMARK                         _______ _______ _______ _____ _____    ______ ____
ROOT
ATOM      1  C   UNL     1      -0.502  -1.360   1.767  0.00  0.00    +0.059 C 
ATOM      2  H   UNL     1      -0.636  -0.270   1.601  0.00  0.00    +0.053 HD
ENDROOT
BRANCH   1   5
ATOM      3  C   UNL     1      -2.117  -1.530  -0.198  0.00  0.00    +0.234 C 
ATOM      4  O   UNL     1      -1.942  -0.316  -0.491  0.00  0.00    -0.274 OA
ATOM      5  N   UNL     1      -1.395  -2.126   0.891  0.00  0.00    -0.308 N 
ATOM      6  H   UNL     1      -1.458  -3.160   1.027  0.00  0.00    +0.149 HD
BRANCH   3   7
ATOM      7  C   UNL     1      -3.055  -2.370  -1.026  0.00  0.00    +0.108 C 
ATOM      8  H   UNL     1      -3.413  -3.217  -0.400  0.00  0.00    +0.060 HD
BRANCH   7  11
ATOM      9  C   UNL     1      -5.190  -1.107  -0.482  0.00  0.00    +0.211 C 
ATOM     10  O   UNL     1      -5.075  -1.392   0.741  0.00  0.00    -0.276 OA
ATOM     11  N   UNL     1      -4.228  -1.585  -1.433  0.00  0.00    -0.304 N 
ATOM     12  H   UNL     1      -4.399  -1.384  -2.443  0.00  0.00    +0.149 HD
BRANCH   9  13
ATOM     13  C   UNL     1      -6.352  -0.290  -0.943  0.00  0.00    +0.012 C 
ATOM     14  H   UNL     1      -6.887   0.152  -0.076  0.00  0.00    +0.032 HD
ATOM     15  H   UNL     1      -5.995   0.531  -1.599  0.00  0.00    +0.032 HD
ATOM     16  H   UNL     1      -7.053  -0.935  -1.513  0.00  0.00    +0.032 HD
ENDBRANCH   9  13
ENDBRANCH   7  11
BRANCH   7  17
ATOM     17  C   UNL     1      -2.330  -2.990  -2.240  0.00  0.00    +0.051 C 
ATOM     18  H   UNL     1      -3.036  -3.657  -2.780  0.00  0.00    +0.038 HD
ATOM     19  H   UNL     1      -1.497  -3.632  -1.877  0.00  0.00    +0.038 HD
BRANCH  17  20
ATOM     20  C   UNL     1      -1.775  -1.969  -3.196  0.00  0.00    +0.213 C 
ATOM     21  N   UNL     1      -2.492  -1.614  -4.379  0.00  0.00    -0.329 N 
ATOM     22  O   UNL     1      -0.667  -1.420  -2.954  0.00  0.00    -0.276 OA
ATOM     23  H   UNL     1      -2.108  -0.895  -5.032  0.00  0.00    +0.145 HD
ATOM     24  H   UNL     1      -3.399  -2.075  -4.614  0.00  0.00    +0.145 HD
ENDBRANCH  17  20
ENDBRANCH   7  17
ENDBRANCH   3   7
ENDBRANCH   1   5
BRANCH   1  25
ATOM     25  C   UNL     1      -0.844  -1.660   3.239  0.00  0.00    +0.019 C 
ATOM     26  H   UNL     1      -0.195  -1.067   3.918  0.00  0.00    +0.040 HD
ATOM     27  H   UNL     1      -0.657  -2.734   3.451  0.00  0.00    +0.040 HD
BRANCH  25  28
ATOM     28  S   UNL     1      -2.601  -1.315   3.628  0.00  0.00    -0.123 S 
BRANCH  28  29
ATOM     29  C   UNL     1      -2.428   0.473   3.648  0.00  0.00    +0.008 A 
ATOM     30  C   UNL     1      -1.940   1.120   4.791  0.00  0.00    -0.048 A 
ATOM     31  C   UNL     1      -1.806   2.512   4.804  0.00  0.00    -0.061 A 
ATOM     32  C   UNL     1      -2.168   3.261   3.680  0.00  0.00    -0.062 A 
ATOM     33  C   UNL     1      -2.671   2.618   2.544  0.00  0.00    -0.061 A 
ATOM     34  C   UNL     1      -2.807   1.226   2.530  0.00  0.00    -0.048 A 
ATOM     35  H   UNL     1      -1.656   0.545   5.664  0.00  0.00    +0.063 HD
ATOM     36  H   UNL     1      -1.421   3.010   5.685  0.00  0.00    +0.062 HD
ATOM     37  H   UNL     1      -2.064   4.338   3.691  0.00  0.00    +0.062 HD
ATOM     38  H   UNL     1      -2.959   3.198   1.677  0.00  0.00    +0.062 HD
ATOM     39  H   UNL     1      -3.207   0.737   1.653  0.00  0.00    +0.063 HD
ENDBRANCH  28  29
ENDBRANCH  25  28
ENDBRANCH   1  25
BRANCH   1  40
ATOM     40  C   UNL     1       0.973  -1.709   1.462  0.00  0.00    +0.078 C 
ATOM     41  H   UNL     1       1.126  -2.795   1.674  0.00  0.00    +0.062 HD
BRANCH  40  42
ATOM     42  C   UNL     1       1.309  -1.448  -0.023  0.00  0.00    +0.001 C 
ATOM     43  H   UNL     1       0.956  -0.441  -0.329  0.00  0.00    +0.034 HD
ATOM     44  H   UNL     1       0.742  -2.167  -0.654  0.00  0.00    +0.034 HD
BRANCH  42  45
ATOM     45  C   UNL     1       2.783  -1.629  -0.317  0.00  0.00    -0.033 A 
ATOM     46  C   UNL     1       3.286  -2.939  -0.412  0.00  0.00    -0.058 A 
ATOM     47  C   UNL     1       4.628  -3.167  -0.718  0.00  0.00    -0.061 A 
ATOM     48  C   UNL     1       5.487  -2.091  -0.935  0.00  0.00    -0.061 A 
ATOM     49  C   UNL     1       5.010  -0.783  -0.839  0.00  0.00    -0.049 A 
ATOM     50  C   UNL     1       3.664  -0.532  -0.521  0.00  0.00    +0.040 A 
ATOM     51  H   UNL     1       2.631  -3.788  -0.257  0.00  0.00    +0.062 HD
ATOM     52  H   UNL     1       5.001  -4.180  -0.791  0.00  0.00    +0.062 HD
ATOM     53  H   UNL     1       6.528  -2.271  -1.174  0.00  0.00    +0.062 HD
ATOM     54  H   UNL     1       5.700   0.037  -0.996  0.00  0.00    +0.063 HD
BRANCH  50  55
ATOM     55  C   UNL     1       3.220   0.874  -0.410  0.00  0.00    +0.245 C 
ATOM     56  O   UNL     1       2.573   1.240   0.608  0.00  0.00    -0.270 OA
ATOM     57  N   UNL     1       3.542   1.816  -1.450  0.00  0.00    -0.307 N 
ATOM     58  H   UNL     1       4.073   1.446  -2.272  0.00  0.00    +0.150 HD
BRANCH  57  59
ATOM     59  C   UNL     1       3.131   3.235  -1.463  0.00  0.00    +0.026 C 
BRANCH  59  60
ATOM     60  C   UNL     1       3.742   3.977  -0.259  0.00  0.00    -0.044 C 
ATOM     61  H   UNL     1       3.326   3.610   0.701  0.00  0.00    +0.025 HD
ATOM     62  H   UNL     1       3.527   5.066  -0.321  0.00  0.00    +0.025 HD
ATOM     63  H   UNL     1       4.844   3.836  -0.239  0.00  0.00    +0.025 HD
ENDBRANCH  59  60
BRANCH  59  64
ATOM     64  C   UNL     1       1.594   3.345  -1.439  0.00  0.00    -0.044 C 
ATOM     65  H   UNL     1       1.152   2.747  -2.264  0.00  0.00    +0.025 HD
ATOM     66  H   UNL     1       1.276   4.404  -1.561  0.00  0.00    +0.025 HD
ATOM     67  H   UNL     1       1.172   2.980  -0.480  0.00  0.00    +0.025 HD
ENDBRANCH  59  64
BRANCH  59  68
ATOM     68  C   UNL     1       3.649   3.895  -2.758  0.00  0.00    -0.044 C 
ATOM     69  H   UNL     1       4.757   3.829  -2.811  0.00  0.00    +0.025 HD
ATOM     70  H   UNL     1       3.227   3.383  -3.650  0.00  0.00    +0.025 HD
ATOM     71  H   UNL     1       3.360   4.967  -2.801  0.00  0.00    +0.025 HD
ENDBRANCH  59  68
ENDBRANCH  57  59
ENDBRANCH  50  55
ENDBRANCH  42  45
ENDBRANCH  40  42
BRANCH  40  72
ATOM     72  O   UNL     1       1.806  -0.932   2.286  0.00  0.00    -0.390 OA
ATOM     73  H   UNL     1       2.628  -1.463   2.457  0.00  0.00    +0.210 HD
ENDBRANCH  40  72
ENDBRANCH   1  40
TORSDOF 18
