REMARK  Name = 
REMARK  17 active torsions:
REMARK  status: ('A' for Active; 'I' for Inactive)
REMARK    1  A    between atoms: C_1  and  O_2
REMARK    2  A    between atoms: O_2  and  C_3
REMARK    3  A    between atoms: C_6  and  S_7
REMARK    4  A    between atoms: S_7  and  N_10
REMARK    5  A    between atoms: N_10  and  C_11
REMARK    6  A    between atoms: N_10  and  C_15
REMARK    7  A    between atoms: C_11  and  C_12
REMARK    8  A    between atoms: C_12  and  C_13
REMARK    9  A    between atoms: C_12  and  C_14
REMARK   10  A    between atoms: C_15  and  C_16
REMARK   11  A    between atoms: C_16  and  O_17
REMARK   12  A    between atoms: C_16  and  C_18
REMARK   13  A    between atoms: C_18  and  C_19
REMARK   14  A    between atoms: C_18  and  N_26
REMARK   15  A    between atoms: C_19  and  C_20
REMARK   16  A    between atoms: C_27  and  O_29
REMARK   17  A    between atoms: O_29  and  C_30
REMARK                            x       y       z     vdW  Elec       q    Type
REMARK                         _______ _______ _______ _____ _____    ______ ____
ROOT
ATOM      1  C   UNL     1       0.907  -2.083  -0.558  0.00  0.00    +0.057 C 
ATOM      2  H   UNL     1       1.064  -3.062  -1.067  0.00  0.00    +0.053 HD
ENDROOT
BRANCH   1   3
ATOM      3  N   UNL     1       2.022  -1.213  -0.969  0.00  0.00    -0.275 N 
ATOM      4  C   UNL     1       2.392   0.042  -0.380  0.00  0.00    +0.401 C 
ATOM      5  O   UNL     1       1.834   0.455   0.672  0.00  0.00    -0.226 OA
ATOM      6  H   UNL     1       2.614  -1.546  -1.763  0.00  0.00    +0.152 HD
BRANCH   4   7
ATOM      7  O   UNL     1       3.399   0.799  -0.990  0.00  0.00    -0.444 OA
BRANCH   7   8
ATOM      8  C   UNL     1       3.907   2.026  -0.460  0.00  0.00    +0.135 C 
ATOM      9  C   UNL     1       4.303   2.945  -1.612  0.00  0.00    +0.088 C 
ATOM     10  O   UNL     1       5.704   2.911  -1.798  0.00  0.00    -0.347 OA
ATOM     11  C   UNL     1       6.234   1.971  -0.894  0.00  0.00    +0.165 C 
ATOM     12  O   UNL     1       6.429   0.751  -1.591  0.00  0.00    -0.351 OA
ATOM     13  C   UNL     1       6.931  -0.239  -0.720  0.00  0.00    +0.051 C 
ATOM     14  C   UNL     1       5.850  -0.655   0.273  0.00  0.00    -0.029 C 
ATOM     15  C   UNL     1       5.397   0.555   1.094  0.00  0.00    -0.040 C 
ATOM     16  C   UNL     1       5.228   1.837   0.249  0.00  0.00    +0.049 C 
ATOM     17  H   UNL     1       3.157   2.527   0.193  0.00  0.00    +0.076 HD
ATOM     18  H   UNL     1       3.795   2.649  -2.555  0.00  0.00    +0.060 HD
ATOM     19  H   UNL     1       4.004   3.989  -1.375  0.00  0.00    +0.060 HD
ATOM     20  H   UNL     1       7.205   2.358  -0.511  0.00  0.00    +0.091 HD
ATOM     21  H   UNL     1       7.217  -1.126  -1.324  0.00  0.00    +0.056 HD
ATOM     22  H   UNL     1       7.848   0.106  -0.189  0.00  0.00    +0.056 HD
ATOM     23  H   UNL     1       4.992  -1.095  -0.276  0.00  0.00    +0.029 HD
ATOM     24  H   UNL     1       6.253  -1.436   0.953  0.00  0.00    +0.029 HD
ATOM     25  H   UNL     1       6.176   0.752   1.864  0.00  0.00    +0.027 HD
ATOM     26  H   UNL     1       4.459   0.323   1.638  0.00  0.00    +0.027 HD
ATOM     27  H   UNL     1       5.365   2.709   0.930  0.00  0.00    +0.039 HD
ENDBRANCH   7   8
ENDBRANCH   4   7
ENDBRANCH   1   3
BRANCH   1  28
ATOM     28  C   UNL     1       0.907  -2.408   0.956  0.00  0.00    -0.007 C 
ATOM     29  H   UNL     1       0.133  -3.180   1.157  0.00  0.00    +0.033 HD
ATOM     30  H   UNL     1       0.618  -1.526   1.560  0.00  0.00    +0.033 HD
BRANCH  28  31
ATOM     31  C   UNL     1       2.239  -2.945   1.422  0.00  0.00    -0.046 A 
ATOM     32  C   UNL     1       3.037  -2.200   2.308  0.00  0.00    -0.059 A 
ATOM     33  C   UNL     1       4.273  -2.696   2.732  0.00  0.00    -0.062 A 
ATOM     34  C   UNL     1       4.723  -3.938   2.276  0.00  0.00    -0.062 A 
ATOM     35  C   UNL     1       3.933  -4.690   1.403  0.00  0.00    -0.062 A 
ATOM     36  C   UNL     1       2.694  -4.199   0.980  0.00  0.00    -0.059 A 
ATOM     37  H   UNL     1       2.704  -1.237   2.672  0.00  0.00    +0.062 HD
ATOM     38  H   UNL     1       4.885  -2.115   3.409  0.00  0.00    +0.062 HD
ATOM     39  H   UNL     1       5.683  -4.318   2.601  0.00  0.00    +0.062 HD
ATOM     40  H   UNL     1       4.281  -5.654   1.054  0.00  0.00    +0.062 HD
ATOM     41  H   UNL     1       2.090  -4.797   0.309  0.00  0.00    +0.062 HD
ENDBRANCH  28  31
ENDBRANCH   1  28
BRANCH   1  42
ATOM     42  C   UNL     1      -0.466  -1.584  -1.092  0.00  0.00    +0.088 C 
ATOM     43  H   UNL     1      -1.221  -2.315  -0.737  0.00  0.00    +0.063 HD
BRANCH  42  44
ATOM     44  C   UNL     1      -0.882  -0.165  -0.599  0.00  0.00    +0.048 C 
ATOM     45  H   UNL     1      -0.278   0.605  -1.126  0.00  0.00    +0.047 HD
ATOM     46  H   UNL     1      -0.641  -0.043   0.474  0.00  0.00    +0.047 HD
BRANCH  44  47
ATOM     47  N   UNL     1      -2.317   0.148  -0.776  0.00  0.00    -0.174 NA
BRANCH  47  48
ATOM     48  C   UNL     1      -2.747   0.159  -2.190  0.00  0.00    +0.023 C 
ATOM     49  H   UNL     1      -1.929   0.555  -2.834  0.00  0.00    +0.045 HD
ATOM     50  H   UNL     1      -2.967  -0.872  -2.541  0.00  0.00    +0.045 HD
BRANCH  48  51
ATOM     51  C   UNL     1      -3.982   1.059  -2.403  0.00  0.00    -0.032 C 
ATOM     52  H   UNL     1      -4.823   0.681  -1.787  0.00  0.00    +0.031 HD
BRANCH  51  53
ATOM     53  C   UNL     1      -4.432   1.003  -3.868  0.00  0.00    -0.061 C 
ATOM     54  H   UNL     1      -4.679  -0.042  -4.152  0.00  0.00    +0.023 HD
ATOM     55  H   UNL     1      -5.342   1.623  -4.013  0.00  0.00    +0.023 HD
ATOM     56  H   UNL     1      -3.631   1.378  -4.540  0.00  0.00    +0.023 HD
ENDBRANCH  51  53
BRANCH  51  57
ATOM     57  C   UNL     1      -3.692   2.510  -1.995  0.00  0.00    -0.061 C 
ATOM     58  H   UNL     1      -2.861   2.929  -2.602  0.00  0.00    +0.023 HD
ATOM     59  H   UNL     1      -3.413   2.566  -0.923  0.00  0.00    +0.023 HD
ATOM     60  H   UNL     1      -4.597   3.137  -2.144  0.00  0.00    +0.023 HD
ENDBRANCH  51  57
ENDBRANCH  48  51
ENDBRANCH  47  48
BRANCH  47  61
ATOM     61  S   UNL     1      -3.350  -0.836   0.249  0.00  0.00    +0.061 S 
ATOM     62  O   UNL     1      -3.923  -1.987  -0.532  0.00  0.00    -0.153 OA
ATOM     63  O   UNL     1      -2.578  -1.387   1.417  0.00  0.00    -0.153 OA
BRANCH  61  67
ATOM     64  C   UNL     1      -6.696   1.818   1.886  0.00  0.00    +0.120 A 
ATOM     65  C   UNL     1      -7.010   0.623   1.209  0.00  0.00    -0.018 A 
ATOM     66  C   UNL     1      -5.990  -0.196   0.714  0.00  0.00    -0.032 A 
ATOM     67  C   UNL     1      -4.648   0.168   0.886  0.00  0.00    +0.106 A 
ATOM     68  C   UNL     1      -4.334   1.352   1.564  0.00  0.00    -0.032 A 
ATOM     69  C   UNL     1      -5.353   2.171   2.058  0.00  0.00    -0.018 A 
ATOM     70  H   UNL     1      -8.037   0.320   1.059  0.00  0.00    +0.065 HD
ATOM     71  H   UNL     1      -6.252  -1.107   0.194  0.00  0.00    +0.064 HD
ATOM     72  H   UNL     1      -3.300   1.644   1.702  0.00  0.00    +0.064 HD
ATOM     73  H   UNL     1      -5.097   3.087   2.576  0.00  0.00    +0.065 HD
BRANCH  64  74
ATOM     74  O   UNL     1      -7.682   2.674   2.398  0.00  0.00    -0.495 OA
BRANCH  74  75
ATOM     75  C   UNL     1      -9.082   2.441   2.293  0.00  0.00    +0.079 C 
ATOM     76  H   UNL     1      -9.383   2.398   1.225  0.00  0.00    +0.066 HD
ATOM     77  H   UNL     1      -9.351   1.493   2.804  0.00  0.00    +0.066 HD
ATOM     78  H   UNL     1      -9.627   3.275   2.782  0.00  0.00    +0.066 HD
ENDBRANCH  74  75
ENDBRANCH  64  74
ENDBRANCH  61  67
ENDBRANCH  47  61
ENDBRANCH  44  47
ENDBRANCH  42  44
BRANCH  42  79
ATOM     79  O   UNL     1      -0.475  -1.648  -2.497  0.00  0.00    -0.389 OA
ATOM     80  H   UNL     1       0.180  -0.983  -2.834  0.00  0.00    +0.210 HD
ENDBRANCH  42  79
ENDBRANCH   1  42
TORSDOF 17
