REMARK  Name = 
REMARK  11 active torsions:
REMARK  status: ('A' for Active; 'I' for Inactive)
REMARK    1  A    between atoms: O_1  and  C_2
REMARK    2  A    between atoms: C_3  and  O_4
REMARK    3  A    between atoms: C_5  and  C_6
REMARK    4  A    between atoms: C_6  and  C_7
REMARK    5  A    between atoms: N_13  and  C_14
REMARK    6  A    between atoms: C_14  and  C_15
REMARK    7  A    between atoms: N_22  and  C_23
REMARK    8  A    between atoms: N_25  and  C_26
REMARK    9  A    between atoms: C_26  and  C_27
REMARK   10  A    between atoms: C_33  and  C_34
REMARK   11  A    between atoms: C_34  and  C_35
REMARK                            x       y       z     vdW  Elec       q    Type
REMARK                         _______ _______ _______ _____ _____    ______ ____
ROOT
ATOM      1  C   UNL     1      -0.953   1.278   0.495  0.00  0.00    +0.102 C 
ATOM      2  C   UNL     1       0.373   1.884  -0.039  0.00  0.00    +0.102 C 
ATOM      3  C   UNL     1       0.969   1.075  -1.214  0.00  0.00    +0.058 C 
ATOM      4  N   UNL     1       1.394  -0.263  -0.750  0.00  0.00    -0.296 N 
ATOM      5  C   UNL     1       0.389  -1.297  -0.807  0.00  0.00    +0.197 C 
ATOM      6  N   UNL     1       0.483  -2.256  -1.684  0.00  0.00    -0.142 NA
ATOM      7  N   UNL     1      -0.783  -1.208   0.049  0.00  0.00    -0.296 N 
ATOM      8  C   UNL     1      -0.776  -0.149   1.105  0.00  0.00    +0.058 C 
ATOM      9  H   UNL     1      -1.300   1.972   1.291  0.00  0.00    +0.064 HD
ATOM     10  H   UNL     1       0.129   2.905  -0.412  0.00  0.00    +0.064 HD
ATOM     11  H   UNL     1       0.169   0.939  -1.977  0.00  0.00    +0.053 HD
ATOM     12  H   UNL     1       0.219  -0.170   1.583  0.00  0.00    +0.053 HD
ENDROOT
BRANCH   4  13
ATOM     13  C   UNL     1       2.812  -0.559  -0.431  0.00  0.00    +0.018 C 
ATOM     14  H   UNL     1       3.371  -0.659  -1.385  0.00  0.00    +0.047 HD
ATOM     15  H   UNL     1       3.256   0.299   0.117  0.00  0.00    +0.047 HD
BRANCH  13  16
ATOM     16  C   UNL     1       3.044  -1.839   0.419  0.00  0.00    -0.025 C 
ATOM     17  C   UNL     1       2.454  -1.710   1.850  0.00  0.00    -0.049 C 
ATOM     18  C   UNL     1       3.228  -2.507   2.918  0.00  0.00    -0.053 C 
ATOM     19  C   UNL     1       3.822  -3.790   2.334  0.00  0.00    -0.053 C 
ATOM     20  C   UNL     1       4.830  -3.488   1.208  0.00  0.00    -0.053 C 
ATOM     21  C   UNL     1       4.552  -2.159   0.476  0.00  0.00    -0.049 C 
ATOM     22  H   UNL     1       2.560  -2.703  -0.084  0.00  0.00    +0.032 HD
ATOM     23  H   UNL     1       1.410  -2.089   1.833  0.00  0.00    +0.027 HD
ATOM     24  H   UNL     1       2.433  -0.646   2.172  0.00  0.00    +0.027 HD
ATOM     25  H   UNL     1       4.050  -1.881   3.329  0.00  0.00    +0.027 HD
ATOM     26  H   UNL     1       2.546  -2.760   3.758  0.00  0.00    +0.027 HD
ATOM     27  H   UNL     1       4.325  -4.368   3.139  0.00  0.00    +0.027 HD
ATOM     28  H   UNL     1       2.996  -4.420   1.934  0.00  0.00    +0.027 HD
ATOM     29  H   UNL     1       5.857  -3.450   1.633  0.00  0.00    +0.027 HD
ATOM     30  H   UNL     1       4.806  -4.324   0.476  0.00  0.00    +0.027 HD
ATOM     31  H   UNL     1       5.083  -1.333   1.000  0.00  0.00    +0.027 HD
ATOM     32  H   UNL     1       4.971  -2.227  -0.552  0.00  0.00    +0.027 HD
ENDBRANCH  13  16
ENDBRANCH   4  13
BRANCH   3  33
ATOM     33  C   UNL     1       2.106   1.843  -1.938  0.00  0.00    -0.006 C 
ATOM     34  H   UNL     1       2.889   2.156  -1.214  0.00  0.00    +0.033 HD
ATOM     35  H   UNL     1       2.593   1.167  -2.674  0.00  0.00    +0.033 HD
BRANCH  33  36
ATOM     36  C   UNL     1       1.592   3.046  -2.689  0.00  0.00    -0.046 A 
ATOM     37  C   UNL     1       1.761   4.340  -2.167  0.00  0.00    -0.059 A 
ATOM     38  C   UNL     1       1.261   5.449  -2.856  0.00  0.00    -0.062 A 
ATOM     39  C   UNL     1       0.588   5.276  -4.069  0.00  0.00    -0.062 A 
ATOM     40  C   UNL     1       0.414   3.992  -4.594  0.00  0.00    -0.062 A 
ATOM     41  C   UNL     1       0.912   2.881  -3.908  0.00  0.00    -0.059 A 
ATOM     42  H   UNL     1       2.272   4.490  -1.224  0.00  0.00    +0.062 HD
ATOM     43  H   UNL     1       1.392   6.443  -2.449  0.00  0.00    +0.062 HD
ATOM     44  H   UNL     1       0.201   6.135  -4.601  0.00  0.00    +0.062 HD
ATOM     45  H   UNL     1      -0.109   3.859  -5.532  0.00  0.00    +0.062 HD
ATOM     46  H   UNL     1       0.767   1.891  -4.323  0.00  0.00    +0.062 HD
ENDBRANCH  33  36
ENDBRANCH   3  33
BRANCH   7  47
ATOM     47  C   UNL     1      -1.785  -2.310  -0.012  0.00  0.00    +0.018 C 
ATOM     48  H   UNL     1      -2.222  -2.538   0.975  0.00  0.00    +0.047 HD
ATOM     49  H   UNL     1      -1.272  -3.263  -0.266  0.00  0.00    +0.047 HD
BRANCH  47  50
ATOM     50  C   UNL     1      -2.942  -2.094  -1.028  0.00  0.00    -0.025 C 
ATOM     51  C   UNL     1      -4.090  -1.250  -0.433  0.00  0.00    -0.049 C 
ATOM     52  C   UNL     1      -5.251  -1.105  -1.423  0.00  0.00    -0.053 C 
ATOM     53  C   UNL     1      -4.766  -0.509  -2.748  0.00  0.00    -0.053 C 
ATOM     54  C   UNL     1      -3.665  -1.379  -3.361  0.00  0.00    -0.053 C 
ATOM     55  C   UNL     1      -2.484  -1.544  -2.396  0.00  0.00    -0.049 C 
ATOM     56  H   UNL     1      -3.370  -3.105  -1.218  0.00  0.00    +0.032 HD
ATOM     57  H   UNL     1      -4.473  -1.738   0.490  0.00  0.00    +0.027 HD
ATOM     58  H   UNL     1      -3.737  -0.242  -0.157  0.00  0.00    +0.027 HD
ATOM     59  H   UNL     1      -6.026  -0.440  -0.984  0.00  0.00    +0.027 HD
ATOM     60  H   UNL     1      -5.716  -2.098  -1.605  0.00  0.00    +0.027 HD
ATOM     61  H   UNL     1      -5.620  -0.446  -3.456  0.00  0.00    +0.027 HD
ATOM     62  H   UNL     1      -4.381   0.521  -2.580  0.00  0.00    +0.027 HD
ATOM     63  H   UNL     1      -4.080  -2.379  -3.619  0.00  0.00    +0.027 HD
ATOM     64  H   UNL     1      -3.307  -0.907  -4.301  0.00  0.00    +0.027 HD
ATOM     65  H   UNL     1      -1.978  -0.565  -2.278  0.00  0.00    +0.027 HD
ATOM     66  H   UNL     1      -1.769  -2.255  -2.860  0.00  0.00    +0.027 HD
ENDBRANCH  47  50
ENDBRANCH   7  47
BRANCH   8  67
ATOM     67  C   UNL     1      -1.750  -0.417   2.287  0.00  0.00    -0.006 C 
ATOM     68  H   UNL     1      -2.801  -0.376   1.941  0.00  0.00    +0.033 HD
ATOM     69  H   UNL     1      -1.561  -1.432   2.696  0.00  0.00    +0.033 HD
BRANCH  67  70
ATOM     70  C   UNL     1      -1.544   0.539   3.440  0.00  0.00    -0.046 A 
ATOM     71  C   UNL     1      -2.494   1.538   3.717  0.00  0.00    -0.059 A 
ATOM     72  C   UNL     1      -2.289   2.432   4.773  0.00  0.00    -0.062 A 
ATOM     73  C   UNL     1      -1.139   2.334   5.561  0.00  0.00    -0.062 A 
ATOM     74  C   UNL     1      -0.192   1.342   5.295  0.00  0.00    -0.062 A 
ATOM     75  C   UNL     1      -0.392   0.446   4.240  0.00  0.00    -0.059 A 
ATOM     76  H   UNL     1      -3.387   1.631   3.111  0.00  0.00    +0.062 HD
ATOM     77  H   UNL     1      -3.022   3.201   4.980  0.00  0.00    +0.062 HD
ATOM     78  H   UNL     1      -0.981   3.027   6.377  0.00  0.00    +0.062 HD
ATOM     79  H   UNL     1       0.699   1.266   5.906  0.00  0.00    +0.062 HD
ATOM     80  H   UNL     1       0.350  -0.319   4.047  0.00  0.00    +0.062 HD
ENDBRANCH  67  70
ENDBRANCH   8  67
BRANCH   6  81
ATOM     81  C   UNL     1       1.512  -2.366  -2.634  0.00  0.00    +0.208 C 
ATOM     82  N   UNL     1       2.358  -2.458  -3.418  0.00  0.00    -0.169 NA
ENDBRANCH   6  81
BRANCH   2  83
ATOM     83  O   UNL     1       1.319   1.996   0.995  0.00  0.00    -0.387 OA
ATOM     84  H   UNL     1       1.011   2.727   1.592  0.00  0.00    +0.210 HD
ENDBRANCH   2  83
BRANCH   1  85
ATOM     85  O   UNL     1      -1.918   1.263  -0.523  0.00  0.00    -0.387 OA
ATOM     86  H   UNL     1      -2.204   2.203  -0.671  0.00  0.00    +0.210 HD
ENDBRANCH   1  85
TORSDOF 11
