REMARK  Name = 
REMARK  10 active torsions:
REMARK  status: ('A' for Active; 'I' for Inactive)
REMARK    1  A    between atoms: C_1  and  C_2
REMARK    2  A    between atoms: C_2  and  C_3
REMARK    3  A    between atoms: C_3  and  C_4
REMARK    4  A    between atoms: C_3  and  C_25
REMARK    5  A    between atoms: C_8  and  N_9
REMARK    6  A    between atoms: C_10  and  C_12
REMARK    7  A    between atoms: C_12  and  C_13
REMARK    8  A    between atoms: C_13  and  N_14
REMARK    9  A    between atoms: N_14  and  C_15
REMARK   10  A    between atoms: C_26  and  O_27
REMARK                            x       y       z     vdW  Elec       q    Type
REMARK                         _______ _______ _______ _____ _____    ______ ____
ROOT
ATOM      1  C   UNL     1      -2.451  -1.354  -0.025  0.00  0.00    -0.038 A 
ATOM      2  C   UNL     1      -2.474  -1.708  -1.386  0.00  0.00    -0.058 A 
ATOM      3  C   UNL     1      -1.297  -2.074  -2.041  0.00  0.00    -0.060 A 
ATOM      4  C   UNL     1      -0.085  -2.102  -1.348  0.00  0.00    -0.040 A 
ATOM      5  C   UNL     1      -0.043  -1.774   0.018  0.00  0.00    +0.034 A 
ATOM      6  C   UNL     1      -1.225  -1.384   0.665  0.00  0.00    -0.037 A 
ATOM      7  H   UNL     1      -3.398  -1.694  -1.946  0.00  0.00    +0.062 HD
ATOM      8  H   UNL     1      -1.322  -2.329  -3.093  0.00  0.00    +0.062 HD
ATOM      9  H   UNL     1       0.819  -2.352  -1.887  0.00  0.00    +0.064 HD
ATOM     10  H   UNL     1      -1.186  -1.111   1.713  0.00  0.00    +0.064 HD
ENDROOT
BRANCH   5  11
ATOM     11  N   UNL     1       1.195  -1.765   0.748  0.00  0.00    -0.285 N 
ATOM     12  C   UNL     1       2.282  -2.670   0.502  0.00  0.00    +0.218 C 
ATOM     13  O   UNL     1       2.112  -3.705  -0.198  0.00  0.00    -0.275 OA
ATOM     14  H   UNL     1       1.290  -1.094   1.544  0.00  0.00    +0.155 HD
BRANCH  12  15
ATOM     15  C   UNL     1       3.639  -2.385   1.075  0.00  0.00    +0.037 C 
ATOM     16  H   UNL     1       4.180  -3.342   1.236  0.00  0.00    +0.037 HD
ATOM     17  H   UNL     1       3.534  -1.898   2.067  0.00  0.00    +0.037 HD
BRANCH  15  18
ATOM     18  C   UNL     1       4.462  -1.499   0.136  0.00  0.00    +0.005 C 
ATOM     19  H   UNL     1       4.600  -2.041  -0.827  0.00  0.00    +0.043 HD
ATOM     20  H   UNL     1       5.476  -1.363   0.568  0.00  0.00    +0.043 HD
BRANCH  18  21
ATOM     21  N   UNL     1       3.772  -0.216  -0.110  0.00  0.00    -0.306 NA
ATOM     22  H   UNL     1       3.791  -0.013  -1.137  0.00  0.00    +0.123 HD
BRANCH  21  23
ATOM     23  C   UNL     1       4.333   0.954   0.597  0.00  0.00    +0.052 C 
ATOM     24  C   UNL     1       4.384   0.763   2.094  0.00  0.00    -0.062 C 
ATOM     25  C   UNL     1       5.623   0.894   2.563  0.00  0.00    -0.056 C 
ATOM     26  C   UNL     1       6.510   1.171   1.450  0.00  0.00    -0.020 A 
ATOM     27  C   UNL     1       7.888   1.383   1.451  0.00  0.00    -0.054 A 
ATOM     28  C   UNL     1       8.521   1.639   0.223  0.00  0.00    -0.061 A 
ATOM     29  C   UNL     1       7.771   1.681  -0.969  0.00  0.00    -0.061 A 
ATOM     30  C   UNL     1       6.383   1.465  -0.942  0.00  0.00    -0.056 A 
ATOM     31  C   UNL     1       5.776   1.204   0.288  0.00  0.00    -0.020 A 
ATOM     32  H   UNL     1       3.733   1.859   0.361  0.00  0.00    +0.055 HD
ATOM     33  H   UNL     1       3.522   0.567   2.718  0.00  0.00    +0.059 HD
ATOM     34  H   UNL     1       5.908   0.810   3.603  0.00  0.00    +0.062 HD
ATOM     35  H   UNL     1       8.455   1.351   2.372  0.00  0.00    +0.062 HD
ATOM     36  H   UNL     1       9.590   1.806   0.194  0.00  0.00    +0.062 HD
ATOM     37  H   UNL     1       8.266   1.882  -1.911  0.00  0.00    +0.062 HD
ATOM     38  H   UNL     1       5.799   1.500  -1.853  0.00  0.00    +0.062 HD
ENDBRANCH  21  23
ENDBRANCH  18  21
ENDBRANCH  15  18
ENDBRANCH  12  15
ENDBRANCH   5  11
BRANCH   1  39
ATOM     39  C   UNL     1      -3.719  -0.935   0.699  0.00  0.00    +0.019 C 
ATOM     40  H   UNL     1      -3.465  -0.712   1.759  0.00  0.00    +0.040 HD
BRANCH  39  41
ATOM     41  C   UNL     1      -4.262   0.372   0.110  0.00  0.00    +0.087 A 
ATOM     42  C   UNL     1      -3.727   1.598   0.568  0.00  0.00    +0.292 A 
ATOM     43  O   UNL     1      -4.143   2.756   0.065  0.00  0.00    -0.425 OA
ATOM     44  C   UNL     1      -5.057   2.842  -0.891  0.00  0.00    +0.143 A 
ATOM     45  C   UNL     1      -5.446   4.100  -1.364  0.00  0.00    -0.019 A 
ATOM     46  C   UNL     1      -6.402   4.205  -2.378  0.00  0.00    -0.058 A 
ATOM     47  C   UNL     1      -6.973   3.053  -2.923  0.00  0.00    -0.061 A 
ATOM     48  C   UNL     1      -6.593   1.791  -2.458  0.00  0.00    -0.047 A 
ATOM     49  C   UNL     1      -5.632   1.674  -1.434  0.00  0.00    +0.064 A 
ATOM     50  C   UNL     1      -5.218   0.427  -0.934  0.00  0.00    +0.200 A 
ATOM     51  O   UNL     1      -5.703  -0.628  -1.424  0.00  0.00    -0.287 OA
ATOM     52  H   UNL     1      -5.005   4.997  -0.948  0.00  0.00    +0.065 HD
ATOM     53  H   UNL     1      -6.699   5.180  -2.741  0.00  0.00    +0.062 HD
ATOM     54  H   UNL     1      -7.713   3.138  -3.709  0.00  0.00    +0.062 HD
ATOM     55  H   UNL     1      -7.051   0.913  -2.896  0.00  0.00    +0.063 HD
BRANCH  42  56
ATOM     56  O   UNL     1      -2.744   1.614   1.554  0.00  0.00    -0.480 OA
ATOM     57  H   UNL     1      -2.354   2.489   1.883  0.00  0.00    +0.295 HD
ENDBRANCH  42  56
ENDBRANCH  39  41
BRANCH  39  58
ATOM     58  C   UNL     1      -4.745  -2.092   0.786  0.00  0.00    -0.045 C 
ATOM     59  H   UNL     1      -5.720  -1.694   1.143  0.00  0.00    +0.027 HD
ATOM     60  H   UNL     1      -4.902  -2.565  -0.206  0.00  0.00    +0.027 HD
BRANCH  58  61
ATOM     61  C   UNL     1      -4.295  -3.187   1.755  0.00  0.00    -0.064 C 
ATOM     62  H   UNL     1      -4.172  -2.773   2.779  0.00  0.00    +0.023 HD
ATOM     63  H   UNL     1      -3.334  -3.631   1.420  0.00  0.00    +0.023 HD
ATOM     64  H   UNL     1      -5.061  -3.990   1.789  0.00  0.00    +0.023 HD
ENDBRANCH  58  61
ENDBRANCH  39  58
ENDBRANCH   1  39
TORSDOF 10
