REMARK  Name = 
REMARK  15 active torsions:
REMARK  status: ('A' for Active; 'I' for Inactive)
REMARK    1  A    between atoms: C_1  and  O_2
REMARK    2  A    between atoms: O_2  and  C_3
REMARK    3  A    between atoms: C_6  and  S_7
REMARK    4  A    between atoms: S_7  and  N_10
REMARK    5  A    between atoms: N_10  and  C_11
REMARK    6  A    between atoms: N_10  and  O_31
REMARK    7  A    between atoms: C_11  and  C_12
REMARK    8  A    between atoms: C_12  and  O_13
REMARK    9  A    between atoms: C_12  and  C_14
REMARK   10  A    between atoms: C_14  and  C_15
REMARK   11  A    between atoms: C_14  and  N_22
REMARK   12  A    between atoms: C_15  and  C_16
REMARK   13  A    between atoms: C_23  and  O_25
REMARK   14  A    between atoms: O_25  and  C_26
REMARK   15  A    between atoms: O_31  and  C_32
REMARK                            x       y       z     vdW  Elec       q    Type
REMARK                         _______ _______ _______ _____ _____    ______ ____
ROOT
ATOM      1  C   UNL     1      -0.178  -0.721  -1.167  0.00  0.00    +0.075 C 
ATOM      2  H   UNL     1       0.787  -1.259  -1.049  0.00  0.00    +0.049 HD
ATOM      3  H   UNL     1      -0.079  -0.143  -2.109  0.00  0.00    +0.049 HD
ENDROOT
BRANCH   1   4
ATOM      4  C   UNL     1      -0.353   0.240   0.043  0.00  0.00    +0.091 C 
ATOM      5  H   UNL     1      -1.392   0.632   0.047  0.00  0.00    +0.063 HD
BRANCH   4   6
ATOM      6  O   UNL     1      -0.134  -0.473   1.234  0.00  0.00    -0.389 OA
ATOM      7  H   UNL     1      -0.576   0.034   1.964  0.00  0.00    +0.210 HD
ENDBRANCH   4   6
BRANCH   4   8
ATOM      8  C   UNL     1       0.625   1.448  -0.011  0.00  0.00    +0.057 C 
ATOM      9  H   UNL     1       0.619   1.936   0.990  0.00  0.00    +0.053 HD
BRANCH   8  10
ATOM     10  N   UNL     1       1.990   0.999  -0.313  0.00  0.00    -0.275 N 
ATOM     11  C   UNL     1       2.817   0.355   0.660  0.00  0.00    +0.401 C 
ATOM     12  O   UNL     1       2.541   0.439   1.889  0.00  0.00    -0.226 OA
ATOM     13  H   UNL     1       2.309   0.977  -1.309  0.00  0.00    +0.152 HD
BRANCH  11  14
ATOM     14  O   UNL     1       3.925  -0.384   0.233  0.00  0.00    -0.445 OA
BRANCH  14  15
ATOM     15  C   UNL     1       4.688  -1.213   1.108  0.00  0.00    +0.130 C 
ATOM     16  C   UNL     1       5.870  -1.794   0.396  0.00  0.00    +0.010 C 
ATOM     17  C   UNL     1       6.030  -3.147   1.058  0.00  0.00    +0.051 C 
ATOM     18  O   UNL     1       4.801  -3.542   1.625  0.00  0.00    -0.376 OA
ATOM     19  C   UNL     1       3.914  -2.451   1.529  0.00  0.00    +0.085 C 
ATOM     20  H   UNL     1       5.029  -0.640   2.001  0.00  0.00    +0.076 HD
ATOM     21  H   UNL     1       5.648  -1.929  -0.686  0.00  0.00    +0.032 HD
ATOM     22  H   UNL     1       6.777  -1.163   0.519  0.00  0.00    +0.032 HD
ATOM     23  H   UNL     1       6.361  -3.905   0.316  0.00  0.00    +0.056 HD
ATOM     24  H   UNL     1       6.792  -3.085   1.865  0.00  0.00    +0.056 HD
ATOM     25  H   UNL     1       3.130  -2.695   0.778  0.00  0.00    +0.060 HD
ATOM     26  H   UNL     1       3.421  -2.283   2.510  0.00  0.00    +0.060 HD
ENDBRANCH  14  15
ENDBRANCH  11  14
ENDBRANCH   8  10
BRANCH   8  27
ATOM     27  C   UNL     1       0.164   2.519  -1.024  0.00  0.00    -0.007 C 
ATOM     28  H   UNL     1      -0.887   2.804  -0.807  0.00  0.00    +0.033 HD
ATOM     29  H   UNL     1       0.182   2.116  -2.059  0.00  0.00    +0.033 HD
BRANCH  27  30
ATOM     30  C   UNL     1       1.021   3.756  -0.941  0.00  0.00    -0.046 A 
ATOM     31  C   UNL     1       2.086   3.948  -1.838  0.00  0.00    -0.059 A 
ATOM     32  C   UNL     1       2.895   5.084  -1.738  0.00  0.00    -0.062 A 
ATOM     33  C   UNL     1       2.652   6.032  -0.741  0.00  0.00    -0.062 A 
ATOM     34  C   UNL     1       1.599   5.845   0.160  0.00  0.00    -0.062 A 
ATOM     35  C   UNL     1       0.788   4.711   0.063  0.00  0.00    -0.059 A 
ATOM     36  H   UNL     1       2.290   3.219  -2.613  0.00  0.00    +0.062 HD
ATOM     37  H   UNL     1       3.713   5.228  -2.433  0.00  0.00    +0.062 HD
ATOM     38  H   UNL     1       3.280   6.910  -0.664  0.00  0.00    +0.062 HD
ATOM     39  H   UNL     1       1.414   6.578   0.934  0.00  0.00    +0.062 HD
ATOM     40  H   UNL     1      -0.021   4.574   0.771  0.00  0.00    +0.062 HD
ENDBRANCH  27  30
ENDBRANCH   8  27
ENDBRANCH   4   8
ENDBRANCH   1   4
BRANCH   1  41
ATOM     41  N   UNL     1      -1.238  -1.742  -1.317  0.00  0.00    -0.052 NA
BRANCH  41  42
ATOM     42  S   UNL     1      -2.556  -1.186  -2.316  0.00  0.00    +0.083 S 
ATOM     43  O   UNL     1      -3.567  -2.289  -2.455  0.00  0.00    -0.151 OA
ATOM     44  O   UNL     1      -2.035  -0.855  -3.687  0.00  0.00    -0.151 OA
BRANCH  42  48
ATOM     45  C   UNL     1      -4.578   2.477  -0.467  0.00  0.00    +0.120 A 
ATOM     46  C   UNL     1      -3.746   2.618  -1.584  0.00  0.00    -0.018 A 
ATOM     47  C   UNL     1      -3.136   1.500  -2.161  0.00  0.00    -0.032 A 
ATOM     48  C   UNL     1      -3.354   0.224  -1.625  0.00  0.00    +0.108 A 
ATOM     49  C   UNL     1      -4.190   0.075  -0.511  0.00  0.00    -0.032 A 
ATOM     50  C   UNL     1      -4.799   1.193   0.067  0.00  0.00    -0.018 A 
ATOM     51  H   UNL     1      -3.565   3.599  -2.003  0.00  0.00    +0.065 HD
ATOM     52  H   UNL     1      -2.484   1.635  -3.014  0.00  0.00    +0.064 HD
ATOM     53  H   UNL     1      -4.361  -0.904  -0.083  0.00  0.00    +0.064 HD
ATOM     54  H   UNL     1      -5.434   1.049   0.930  0.00  0.00    +0.065 HD
BRANCH  45  55
ATOM     55  O   UNL     1      -5.160   3.630   0.079  0.00  0.00    -0.495 OA
BRANCH  55  56
ATOM     56  C   UNL     1      -6.018   3.636   1.216  0.00  0.00    +0.079 C 
ATOM     57  H   UNL     1      -6.330   4.679   1.429  0.00  0.00    +0.066 HD
ATOM     58  H   UNL     1      -5.480   3.237   2.102  0.00  0.00    +0.066 HD
ATOM     59  H   UNL     1      -6.924   3.028   1.013  0.00  0.00    +0.066 HD
ENDBRANCH  55  56
ENDBRANCH  45  55
ENDBRANCH  42  48
ENDBRANCH  41  42
BRANCH  41  60
ATOM     60  O   UNL     1      -1.741  -2.102  -0.104  0.00  0.00    -0.273 OA
BRANCH  60  61
ATOM     61  C   UNL     1      -1.557  -3.495   0.015  0.00  0.00    +0.082 C 
ATOM     62  C   UNL     1      -2.366  -4.028   1.185  0.00  0.00    -0.025 C 
ATOM     63  C   UNL     1      -1.621  -5.264   1.672  0.00  0.00    -0.051 C 
ATOM     64  C   UNL     1      -0.188  -5.148   1.154  0.00  0.00    -0.051 C 
ATOM     65  C   UNL     1      -0.114  -3.854   0.354  0.00  0.00    -0.025 C 
ATOM     66  H   UNL     1      -1.879  -4.035  -0.908  0.00  0.00    +0.062 HD
ATOM     67  H   UNL     1      -3.405  -4.274   0.877  0.00  0.00    +0.029 HD
ATOM     68  H   UNL     1      -2.398  -3.272   2.002  0.00  0.00    +0.029 HD
ATOM     69  H   UNL     1      -1.640  -5.321   2.782  0.00  0.00    +0.027 HD
ATOM     70  H   UNL     1      -2.099  -6.180   1.258  0.00  0.00    +0.027 HD
ATOM     71  H   UNL     1       0.048  -6.014   0.496  0.00  0.00    +0.027 HD
ATOM     72  H   UNL     1       0.539  -5.129   1.995  0.00  0.00    +0.027 HD
ATOM     73  H   UNL     1       0.343  -3.061   0.985  0.00  0.00    +0.029 HD
ATOM     74  H   UNL     1       0.495  -3.982  -0.567  0.00  0.00    +0.029 HD
ENDBRANCH  60  61
ENDBRANCH  41  60
ENDBRANCH   1  41
TORSDOF 15
