REMARK  Name = 
REMARK  21 active torsions:
REMARK  status: ('A' for Active; 'I' for Inactive)
REMARK    1  A    between atoms: C_1  and  C_2
REMARK    2  A    between atoms: C_2  and  C_3
REMARK    3  A    between atoms: C_2  and  C_4
REMARK    4  A    between atoms: C_4  and  C_5
REMARK    5  A    between atoms: C_4  and  C_6
REMARK    6  A    between atoms: C_9  and  C_11
REMARK    7  A    between atoms: C_11  and  O_12
REMARK    8  A    between atoms: C_11  and  C_13
REMARK    9  A    between atoms: C_13  and  O_14
REMARK   10  A    between atoms: C_13  and  C_15
REMARK   11  A    between atoms: C_15  and  O_16
REMARK   12  A    between atoms: C_15  and  C_17
REMARK   13  A    between atoms: C_17  and  O_18
REMARK   14  A    between atoms: C_17  and  C_31
REMARK   15  A    between atoms: O_18  and  C_19
REMARK   16  A    between atoms: C_22  and  C_23
REMARK   17  A    between atoms: C_34  and  C_36
REMARK   18  A    between atoms: C_36  and  C_37
REMARK   19  A    between atoms: C_36  and  C_38
REMARK   20  A    between atoms: C_38  and  C_39
REMARK   21  A    between atoms: C_38  and  C_40
REMARK                            x       y       z     vdW  Elec       q    Type
REMARK                         _______ _______ _______ _____ _____    ______ ____
ROOT
ATOM      1  C   UNL     1       0.291  -0.819  -0.534  0.00  0.00    +0.204 C 
ATOM      2  H   UNL     1       0.085  -0.390   0.471  0.00  0.00    +0.086 HD
ENDROOT
BRANCH   1   3
ATOM      3  C   UNL     1      -0.878  -1.656  -0.988  0.00  0.00    +0.263 C 
ATOM      4  O   UNL     1      -1.016  -1.914  -2.215  0.00  0.00    -0.271 OA
ATOM      5  N   UNL     1      -1.804  -2.178  -0.021  0.00  0.00    -0.253 N 
ATOM      6  C   UNL     1      -2.936  -2.998  -0.354  0.00  0.00    +0.222 C 
ATOM      7  O   UNL     1      -3.205  -3.260  -1.559  0.00  0.00    -0.275 OA
ATOM      8  H   UNL     1      -1.630  -1.963   0.986  0.00  0.00    +0.158 HD
BRANCH   6   9
ATOM      9  C   UNL     1      -3.804  -3.572   0.742  0.00  0.00    +0.035 C 
ATOM     10  H   UNL     1      -3.457  -3.173   1.721  0.00  0.00    +0.039 HD
BRANCH   9  11
ATOM     11  C   UNL     1      -5.248  -3.084   0.541  0.00  0.00    -0.054 C 
ATOM     12  H   UNL     1      -5.712  -3.578  -0.339  0.00  0.00    +0.024 HD
ATOM     13  H   UNL     1      -5.264  -1.984   0.384  0.00  0.00    +0.024 HD
ATOM     14  H   UNL     1      -5.861  -3.292   1.442  0.00  0.00    +0.024 HD
ENDBRANCH   9  11
BRANCH   9  15
ATOM     15  C   UNL     1      -3.697  -5.126   0.782  0.00  0.00    -0.036 C 
ATOM     16  H   UNL     1      -4.053  -5.539  -0.189  0.00  0.00    +0.030 HD
BRANCH  15  17
ATOM     17  C   UNL     1      -4.567  -5.733   1.896  0.00  0.00    -0.062 C 
ATOM     18  H   UNL     1      -4.400  -6.829   1.967  0.00  0.00    +0.023 HD
ATOM     19  H   UNL     1      -5.645  -5.586   1.677  0.00  0.00    +0.023 HD
ATOM     20  H   UNL     1      -4.326  -5.271   2.878  0.00  0.00    +0.023 HD
ENDBRANCH  15  17
BRANCH  15  21
ATOM     21  C   UNL     1      -2.239  -5.580   0.980  0.00  0.00    -0.062 C 
ATOM     22  H   UNL     1      -2.182  -6.687   1.046  0.00  0.00    +0.023 HD
ATOM     23  H   UNL     1      -1.611  -5.269   0.119  0.00  0.00    +0.023 HD
ATOM     24  H   UNL     1      -1.817  -5.143   1.911  0.00  0.00    +0.023 HD
ENDBRANCH  15  21
ENDBRANCH   9  15
ENDBRANCH   6   9
ENDBRANCH   1   3
BRANCH   1  25
ATOM     25  C   UNL     1       1.587  -1.654  -0.432  0.00  0.00    +0.129 C 
ATOM     26  H   UNL     1       2.397  -0.934  -0.202  0.00  0.00    +0.066 HD
BRANCH  25  27
ATOM     27  O   UNL     1       1.867  -2.283  -1.659  0.00  0.00    -0.385 OA
ATOM     28  H   UNL     1       2.237  -1.590  -2.265  0.00  0.00    +0.210 HD
ENDBRANCH  25  27
BRANCH  25  29
ATOM     29  C   UNL     1       1.527  -2.704   0.718  0.00  0.00    +0.119 C 
ATOM     30  H   UNL     1       0.929  -2.268   1.550  0.00  0.00    +0.065 HD
BRANCH  29  31
ATOM     31  O   UNL     1       0.843  -3.862   0.306  0.00  0.00    -0.386 OA
ATOM     32  H   UNL     1       1.432  -4.358  -0.321  0.00  0.00    +0.210 HD
ENDBRANCH  29  31
BRANCH  29  33
ATOM     33  C   UNL     1       2.907  -3.074   1.342  0.00  0.00    +0.159 C 
ATOM     34  H   UNL     1       2.712  -3.916   2.042  0.00  0.00    +0.072 HD
BRANCH  33  38
ATOM     35  C   UNL     1       4.714   0.257   2.340  0.00  0.00    +0.222 C 
ATOM     36  O   UNL     1       4.737   0.234   3.601  0.00  0.00    -0.275 OA
ATOM     37  N   UNL     1       4.288  -0.907   1.607  0.00  0.00    -0.254 N 
ATOM     38  C   UNL     1       3.480  -1.951   2.183  0.00  0.00    +0.250 C 
ATOM     39  O   UNL     1       3.181  -1.911   3.408  0.00  0.00    -0.272 OA
ATOM     40  H   UNL     1       4.524  -0.965   0.595  0.00  0.00    +0.158 HD
BRANCH  35  41
ATOM     41  C   UNL     1       5.083   1.549   1.637  0.00  0.00    +0.035 C 
ATOM     42  H   UNL     1       5.828   2.055   2.292  0.00  0.00    +0.039 HD
BRANCH  41  43
ATOM     43  C   UNL     1       5.808   1.310   0.299  0.00  0.00    -0.054 C 
ATOM     44  H   UNL     1       5.115   0.961  -0.493  0.00  0.00    +0.024 HD
ATOM     45  H   UNL     1       6.610   0.553   0.431  0.00  0.00    +0.024 HD
ATOM     46  H   UNL     1       6.293   2.246  -0.049  0.00  0.00    +0.024 HD
ENDBRANCH  41  43
BRANCH  41  47
ATOM     47  C   UNL     1       3.854   2.503   1.534  0.00  0.00    -0.036 C 
ATOM     48  H   UNL     1       3.492   2.683   2.571  0.00  0.00    +0.030 HD
BRANCH  47  49
ATOM     49  C   UNL     1       2.672   1.912   0.747  0.00  0.00    -0.062 C 
ATOM     50  H   UNL     1       1.827   2.633   0.729  0.00  0.00    +0.023 HD
ATOM     51  H   UNL     1       2.953   1.686  -0.302  0.00  0.00    +0.023 HD
ATOM     52  H   UNL     1       2.303   0.989   1.238  0.00  0.00    +0.023 HD
ENDBRANCH  47  49
BRANCH  47  53
ATOM     53  C   UNL     1       4.237   3.877   0.963  0.00  0.00    -0.062 C 
ATOM     54  H   UNL     1       3.389   4.585   1.078  0.00  0.00    +0.023 HD
ATOM     55  H   UNL     1       4.485   3.804  -0.117  0.00  0.00    +0.023 HD
ATOM     56  H   UNL     1       5.109   4.294   1.510  0.00  0.00    +0.023 HD
ENDBRANCH  47  53
ENDBRANCH  41  47
ENDBRANCH  35  41
ENDBRANCH  33  38
BRANCH  33  57
ATOM     57  O   UNL     1       3.834  -3.559   0.401  0.00  0.00    -0.380 OA
ATOM     58  H   UNL     1       3.940  -2.888  -0.318  0.00  0.00    +0.211 HD
ENDBRANCH  33  57
ENDBRANCH  29  33
ENDBRANCH  25  29
ENDBRANCH   1  25
BRANCH   1  59
ATOM     59  O   UNL     1       0.509   0.260  -1.446  0.00  0.00    -0.477 OA
BRANCH  59  60
ATOM     60  C   UNL     1      -0.286   1.413  -1.548  0.00  0.00    +0.122 A 
ATOM     61  C   UNL     1      -1.453   1.603  -0.786  0.00  0.00    -0.019 A 
ATOM     62  C   UNL     1      -2.201   2.775  -0.921  0.00  0.00    -0.049 A 
ATOM     63  C   UNL     1      -1.806   3.778  -1.824  0.00  0.00    +0.001 A 
ATOM     64  C   UNL     1      -0.633   3.586  -2.577  0.00  0.00    -0.049 A 
ATOM     65  C   UNL     1       0.113   2.412  -2.440  0.00  0.00    -0.019 A 
ATOM     66  H   UNL     1      -1.796   0.852  -0.087  0.00  0.00    +0.065 HD
ATOM     67  H   UNL     1      -3.099   2.892  -0.326  0.00  0.00    +0.063 HD
ATOM     68  H   UNL     1      -0.273   4.348  -3.255  0.00  0.00    +0.063 HD
ATOM     69  H   UNL     1       1.016   2.283  -3.024  0.00  0.00    +0.065 HD
BRANCH  63  70
ATOM     70  C   UNL     1      -2.610   5.022  -1.946  0.00  0.00    +0.071 A 
ATOM     71  C   UNL     1      -2.657   5.759  -3.144  0.00  0.00    -0.036 A 
ATOM     72  C   UNL     1      -3.431   6.919  -3.209  0.00  0.00    -0.058 A 
ATOM     73  C   UNL     1      -4.156   7.337  -2.092  0.00  0.00    -0.044 A 
ATOM     74  C   UNL     1      -4.099   6.580  -0.922  0.00  0.00    +0.028 A 
ATOM     75  N   UNL     1      -3.339   5.453  -0.876  0.00  0.00    -0.255 NA
ATOM     76  H   UNL     1      -2.125   5.435  -4.028  0.00  0.00    +0.064 HD
ATOM     77  H   UNL     1      -3.475   7.491  -4.127  0.00  0.00    +0.062 HD
ATOM     78  H   UNL     1      -4.759   8.234  -2.135  0.00  0.00    +0.063 HD
ATOM     79  H   UNL     1      -4.659   6.886  -0.049  0.00  0.00    +0.083 HD
ENDBRANCH  63  70
ENDBRANCH  59  60
ENDBRANCH   1  59
TORSDOF 21
