REMARK  Name = 
REMARK  14 active torsions:
REMARK  status: ('A' for Active; 'I' for Inactive)
REMARK    1  A    between atoms: C_1  and  C_2
REMARK    2  A    between atoms: C_2  and  C_3
REMARK    3  A    between atoms: C_2  and  C_4
REMARK    4  A    between atoms: C_4  and  C_5
REMARK    5  A    between atoms: C_5  and  N_6
REMARK    6  A    between atoms: N_6  and  C_7
REMARK    7  A    between atoms: N_6  and  S_33
REMARK    8  A    between atoms: C_7  and  C_8
REMARK    9  A    between atoms: C_8  and  O_9
REMARK   10  A    between atoms: C_8  and  C_10
REMARK   11  A    between atoms: C_24  and  C_25
REMARK   12  A    between atoms: C_25  and  C_26
REMARK   13  A    between atoms: C_25  and  C_27
REMARK   14  A    between atoms: S_33  and  C_36
REMARK                            x       y       z     vdW  Elec       q    Type
REMARK                         _______ _______ _______ _____ _____    ______ ____
ROOT
ATOM      1  C   UNL     1       0.442  -1.078  -1.213  0.00  0.00    +0.054 C 
ATOM      2  C   UNL     1       0.861  -2.561  -1.116  0.00  0.00    -0.007 C 
ATOM      3  C   UNL     1       2.365  -2.680  -1.084  0.00  0.00    -0.045 A 
ATOM      4  C   UNL     1       3.120  -2.393  -2.231  0.00  0.00    -0.055 A 
ATOM      5  C   UNL     1       4.512  -2.299  -2.151  0.00  0.00    -0.020 A 
ATOM      6  C   UNL     1       5.168  -2.487  -0.930  0.00  0.00    +0.121 A 
ATOM      7  O   UNL     1       6.552  -2.261  -0.879  0.00  0.00    -0.492 OA
ATOM      8  C   UNL     1       7.318  -2.073   0.315  0.00  0.00    +0.090 C 
ATOM      9  C   UNL     1       6.879  -0.822   1.094  0.00  0.00    -0.018 C 
ATOM     10  C   UNL     1       6.825   0.436   0.211  0.00  0.00    -0.042 C 
ATOM     11  C   UNL     1       6.357   1.670   0.996  0.00  0.00    +0.024 C 
ATOM     12  C   UNL     1       4.912   1.561   1.392  0.00  0.00    +0.214 C 
ATOM     13  O   UNL     1       4.617   1.181   2.558  0.00  0.00    -0.276 OA
ATOM     14  N   UNL     1       3.878   1.858   0.440  0.00  0.00    -0.304 N 
ATOM     15  C   UNL     1       2.448   1.683   0.725  0.00  0.00    +0.102 C 
ATOM     16  C   UNL     1       1.815   0.917  -0.410  0.00  0.00    +0.234 C 
ATOM     17  O   UNL     1       1.914   1.361  -1.588  0.00  0.00    -0.274 OA
ATOM     18  N   UNL     1       1.082  -0.290  -0.151  0.00  0.00    -0.308 N 
ATOM     19  C   UNL     1       4.419  -2.865   0.200  0.00  0.00    -0.020 A 
ATOM     20  C   UNL     1       3.026  -2.941   0.126  0.00  0.00    -0.055 A 
ATOM     21  H   UNL     1       0.800  -0.724  -2.205  0.00  0.00    +0.053 HD
ATOM     22  H   UNL     1       0.430  -3.032  -0.209  0.00  0.00    +0.033 HD
ATOM     23  H   UNL     1       0.468  -3.117  -1.995  0.00  0.00    +0.033 HD
ATOM     24  H   UNL     1       2.629  -2.188  -3.174  0.00  0.00    +0.062 HD
ATOM     25  H   UNL     1       5.080  -2.028  -3.033  0.00  0.00    +0.065 HD
ATOM     26  H   UNL     1       7.244  -2.972   0.962  0.00  0.00    +0.070 HD
ATOM     27  H   UNL     1       8.385  -1.959   0.028  0.00  0.00    +0.070 HD
ATOM     28  H   UNL     1       5.885  -1.001   1.551  0.00  0.00    +0.030 HD
ATOM     29  H   UNL     1       7.598  -0.656   1.926  0.00  0.00    +0.030 HD
ATOM     30  H   UNL     1       7.842   0.636  -0.192  0.00  0.00    +0.027 HD
ATOM     31  H   UNL     1       6.143   0.276  -0.652  0.00  0.00    +0.027 HD
ATOM     32  H   UNL     1       6.991   1.808   1.899  0.00  0.00    +0.036 HD
ATOM     33  H   UNL     1       6.488   2.572   0.360  0.00  0.00    +0.036 HD
ATOM     34  H   UNL     1       4.157   2.277  -0.476  0.00  0.00    +0.149 HD
ATOM     35  H   UNL     1       2.321   1.092   1.659  0.00  0.00    +0.060 HD
ATOM     36  H   UNL     1       1.006  -0.629   0.835  0.00  0.00    +0.149 HD
ATOM     37  H   UNL     1       4.898  -3.070   1.146  0.00  0.00    +0.065 HD
ATOM     38  H   UNL     1       2.463  -3.166   1.023  0.00  0.00    +0.062 HD
ENDROOT
BRANCH  15  39
ATOM     39  C   UNL     1       1.757   3.059   0.922  0.00  0.00    -0.020 C 
ATOM     40  H   UNL     1       1.862   3.654  -0.013  0.00  0.00    +0.032 HD
BRANCH  39  41
ATOM     41  C   UNL     1       2.418   3.854   2.059  0.00  0.00    -0.061 C 
ATOM     42  H   UNL     1       3.476   4.081   1.813  0.00  0.00    +0.023 HD
ATOM     43  H   UNL     1       2.381   3.281   3.010  0.00  0.00    +0.023 HD
ATOM     44  H   UNL     1       1.895   4.824   2.206  0.00  0.00    +0.023 HD
ENDBRANCH  39  41
BRANCH  39  45
ATOM     45  C   UNL     1       0.256   2.897   1.218  0.00  0.00    -0.061 C 
ATOM     46  H   UNL     1      -0.216   3.889   1.385  0.00  0.00    +0.023 HD
ATOM     47  H   UNL     1       0.099   2.269   2.121  0.00  0.00    +0.023 HD
ATOM     48  H   UNL     1      -0.264   2.425   0.358  0.00  0.00    +0.023 HD
ENDBRANCH  39  45
ENDBRANCH  15  39
BRANCH   1  49
ATOM     49  C   UNL     1      -1.095  -0.873  -1.209  0.00  0.00    +0.088 C 
ATOM     50  H   UNL     1      -1.535  -1.539  -1.986  0.00  0.00    +0.063 HD
BRANCH  49  51
ATOM     51  C   UNL     1      -1.765  -1.205   0.140  0.00  0.00    +0.048 C 
ATOM     52  H   UNL     1      -1.298  -0.568   0.922  0.00  0.00    +0.047 HD
ATOM     53  H   UNL     1      -1.566  -2.256   0.437  0.00  0.00    +0.047 HD
BRANCH  51  54
ATOM     54  N   UNL     1      -3.219  -0.947   0.051  0.00  0.00    -0.174 NA
BRANCH  54  55
ATOM     55  S   UNL     1      -4.093  -2.416  -0.323  0.00  0.00    +0.061 S 
ATOM     56  O   UNL     1      -4.169  -3.288   0.900  0.00  0.00    -0.153 OA
ATOM     57  O   UNL     1      -3.407  -3.179  -1.422  0.00  0.00    -0.153 OA
BRANCH  55  58
ATOM     58  C   UNL     1      -5.708  -1.977  -0.868  0.00  0.00    +0.105 A 
ATOM     59  C   UNL     1      -5.853  -1.129  -1.974  0.00  0.00    -0.035 A 
ATOM     60  C   UNL     1      -7.127  -0.739  -2.398  0.00  0.00    -0.060 A 
ATOM     61  C   UNL     1      -8.261  -1.196  -1.719  0.00  0.00    -0.062 A 
ATOM     62  C   UNL     1      -8.120  -2.043  -0.616  0.00  0.00    -0.060 A 
ATOM     63  C   UNL     1      -6.847  -2.433  -0.189  0.00  0.00    -0.035 A 
ATOM     64  H   UNL     1      -4.981  -0.761  -2.500  0.00  0.00    +0.064 HD
ATOM     65  H   UNL     1      -7.236  -0.080  -3.249  0.00  0.00    +0.062 HD
ATOM     66  H   UNL     1      -9.246  -0.892  -2.046  0.00  0.00    +0.062 HD
ATOM     67  H   UNL     1      -8.998  -2.394  -0.089  0.00  0.00    +0.062 HD
ATOM     68  H   UNL     1      -6.753  -3.082   0.672  0.00  0.00    +0.064 HD
ENDBRANCH  55  58
ENDBRANCH  54  55
BRANCH  54  69
ATOM     69  C   UNL     1      -3.758  -0.342   1.287  0.00  0.00    +0.021 C 
ATOM     70  H   UNL     1      -4.842  -0.554   1.402  0.00  0.00    +0.044 HD
ATOM     71  H   UNL     1      -3.266  -0.774   2.188  0.00  0.00    +0.044 HD
BRANCH  69  72
ATOM     72  C   UNL     1      -3.566   1.184   1.277  0.00  0.00    -0.036 C 
ATOM     73  H   UNL     1      -2.478   1.401   1.250  0.00  0.00    +0.028 HD
ATOM     74  H   UNL     1      -3.950   1.601   2.233  0.00  0.00    +0.028 HD
BRANCH  72  75
ATOM     75  C   UNL     1      -4.263   1.885   0.086  0.00  0.00    -0.046 C 
ATOM     76  H   UNL     1      -4.009   1.355  -0.859  0.00  0.00    +0.030 HD
BRANCH  75  77
ATOM     77  C   UNL     1      -5.792   1.889   0.239  0.00  0.00    -0.063 C 
ATOM     78  H   UNL     1      -6.194   0.856   0.231  0.00  0.00    +0.023 HD
ATOM     79  H   UNL     1      -6.090   2.385   1.188  0.00  0.00    +0.023 HD
ATOM     80  H   UNL     1      -6.260   2.432  -0.610  0.00  0.00    +0.023 HD
ENDBRANCH  75  77
BRANCH  75  81
ATOM     81  C   UNL     1      -3.751   3.325  -0.049  0.00  0.00    -0.063 C 
ATOM     82  H   UNL     1      -2.655   3.327  -0.228  0.00  0.00    +0.023 HD
ATOM     83  H   UNL     1      -4.237   3.829  -0.911  0.00  0.00    +0.023 HD
ATOM     84  H   UNL     1      -3.965   3.905   0.875  0.00  0.00    +0.023 HD
ENDBRANCH  75  81
ENDBRANCH  72  75
ENDBRANCH  69  72
ENDBRANCH  54  69
ENDBRANCH  51  54
ENDBRANCH  49  51
BRANCH  49  85
ATOM     85  O   UNL     1      -1.384   0.464  -1.533  0.00  0.00    -0.389 OA
ATOM     86  H   UNL     1      -1.266   0.558  -2.514  0.00  0.00    +0.210 HD
ENDBRANCH  49  85
ENDBRANCH   1  49
TORSDOF 14
