REMARK  Name = 
REMARK  17 active torsions:
REMARK  status: ('A' for Active; 'I' for Inactive)
REMARK    1  A    between atoms: C_1  and  O_2
REMARK    2  A    between atoms: O_2  and  C_3
REMARK    3  A    between atoms: C_6  and  S_7
REMARK    4  A    between atoms: S_7  and  N_10
REMARK    5  A    between atoms: N_10  and  C_11
REMARK    6  A    between atoms: N_10  and  C_15
REMARK    7  A    between atoms: C_11  and  C_12
REMARK    8  A    between atoms: C_12  and  C_13
REMARK    9  A    between atoms: C_12  and  C_14
REMARK   10  A    between atoms: C_15  and  C_16
REMARK   11  A    between atoms: C_16  and  O_17
REMARK   12  A    between atoms: C_16  and  C_18
REMARK   13  A    between atoms: C_18  and  C_19
REMARK   14  A    between atoms: C_18  and  N_26
REMARK   15  A    between atoms: C_19  and  C_20
REMARK   16  A    between atoms: C_27  and  O_29
REMARK   17  A    between atoms: O_29  and  C_30
REMARK                            x       y       z     vdW  Elec       q    Type
REMARK                         _______ _______ _______ _____ _____    ______ ____
ROOT
ATOM      1  C   UNL     1      -1.073  -2.320  -1.181  0.00  0.00    +0.057 C 
ATOM      2  H   UNL     1      -1.333  -2.827  -0.225  0.00  0.00    +0.053 HD
ENDROOT
BRANCH   1   3
ATOM      3  N   UNL     1      -1.637  -0.966  -1.191  0.00  0.00    -0.275 N 
ATOM      4  C   UNL     1      -2.072  -0.294  -0.003  0.00  0.00    +0.401 C 
ATOM      5  O   UNL     1      -2.280  -0.942   1.059  0.00  0.00    -0.226 OA
ATOM      6  H   UNL     1      -1.545  -0.397  -2.063  0.00  0.00    +0.152 HD
BRANCH   4   7
ATOM      7  O   UNL     1      -2.232   1.094  -0.029  0.00  0.00    -0.444 OA
BRANCH   7   8
ATOM      8  C   UNL     1      -2.552   1.864   1.130  0.00  0.00    +0.135 C 
ATOM      9  C   UNL     1      -4.026   1.741   1.525  0.00  0.00    +0.088 C 
ATOM     10  O   UNL     1      -4.514   3.011   1.913  0.00  0.00    -0.347 OA
ATOM     11  C   UNL     1      -3.406   3.882   1.907  0.00  0.00    +0.165 C 
ATOM     12  O   UNL     1      -3.793   5.234   1.703  0.00  0.00    -0.351 OA
ATOM     13  C   UNL     1      -4.267   5.454   0.392  0.00  0.00    +0.051 C 
ATOM     14  C   UNL     1      -3.155   5.216  -0.625  0.00  0.00    -0.029 C 
ATOM     15  C   UNL     1      -2.739   3.755  -0.556  0.00  0.00    -0.040 C 
ATOM     16  C   UNL     1      -2.389   3.348   0.896  0.00  0.00    +0.049 C 
ATOM     17  H   UNL     1      -1.901   1.559   1.982  0.00  0.00    +0.076 HD
ATOM     18  H   UNL     1      -4.629   1.377   0.665  0.00  0.00    +0.060 HD
ATOM     19  H   UNL     1      -4.142   1.024   2.365  0.00  0.00    +0.060 HD
ATOM     20  H   UNL     1      -2.938   3.837   2.917  0.00  0.00    +0.091 HD
ATOM     21  H   UNL     1      -5.155   4.818   0.172  0.00  0.00    +0.056 HD
ATOM     22  H   UNL     1      -4.596   6.512   0.313  0.00  0.00    +0.056 HD
ATOM     23  H   UNL     1      -2.285   5.871  -0.395  0.00  0.00    +0.029 HD
ATOM     24  H   UNL     1      -3.520   5.455  -1.647  0.00  0.00    +0.029 HD
ATOM     25  H   UNL     1      -3.579   3.139  -0.948  0.00  0.00    +0.027 HD
ATOM     26  H   UNL     1      -1.863   3.585  -1.217  0.00  0.00    +0.027 HD
ATOM     27  H   UNL     1      -1.362   3.685   1.151  0.00  0.00    +0.039 HD
ENDBRANCH   7   8
ENDBRANCH   4   7
ENDBRANCH   1   3
BRANCH   1  28
ATOM     28  C   UNL     1      -1.713  -3.118  -2.339  0.00  0.00    -0.007 C 
ATOM     29  H   UNL     1      -2.815  -2.972  -2.311  0.00  0.00    +0.033 HD
ATOM     30  H   UNL     1      -1.367  -2.709  -3.314  0.00  0.00    +0.033 HD
BRANCH  28  31
ATOM     31  C   UNL     1      -1.439  -4.600  -2.257  0.00  0.00    -0.046 A 
ATOM     32  C   UNL     1      -2.071  -5.382  -1.275  0.00  0.00    -0.059 A 
ATOM     33  C   UNL     1      -1.809  -6.753  -1.190  0.00  0.00    -0.062 A 
ATOM     34  C   UNL     1      -0.916  -7.352  -2.082  0.00  0.00    -0.062 A 
ATOM     35  C   UNL     1      -0.285  -6.582  -3.063  0.00  0.00    -0.062 A 
ATOM     36  C   UNL     1      -0.545  -5.211  -3.153  0.00  0.00    -0.059 A 
ATOM     37  H   UNL     1      -2.765  -4.930  -0.578  0.00  0.00    +0.062 HD
ATOM     38  H   UNL     1      -2.297  -7.350  -0.431  0.00  0.00    +0.062 HD
ATOM     39  H   UNL     1      -0.713  -8.413  -2.014  0.00  0.00    +0.062 HD
ATOM     40  H   UNL     1       0.407  -7.047  -3.753  0.00  0.00    +0.062 HD
ATOM     41  H   UNL     1      -0.044  -4.626  -3.914  0.00  0.00    +0.062 HD
ENDBRANCH  28  31
ENDBRANCH   1  28
BRANCH   1  42
ATOM     42  C   UNL     1       0.473  -2.248  -1.298  0.00  0.00    +0.088 C 
ATOM     43  H   UNL     1       0.720  -1.837  -2.304  0.00  0.00    +0.063 HD
BRANCH  42  44
ATOM     44  C   UNL     1       1.082  -1.331  -0.216  0.00  0.00    +0.048 C 
ATOM     45  H   UNL     1       0.735  -1.707   0.772  0.00  0.00    +0.047 HD
ATOM     46  H   UNL     1       0.681  -0.301  -0.307  0.00  0.00    +0.047 HD
BRANCH  44  47
ATOM     47  N   UNL     1       2.560  -1.329  -0.306  0.00  0.00    -0.174 NA
BRANCH  47  48
ATOM     48  C   UNL     1       3.190  -1.263   1.029  0.00  0.00    +0.023 C 
ATOM     49  H   UNL     1       4.225  -0.863   0.959  0.00  0.00    +0.045 HD
ATOM     50  H   UNL     1       2.624  -0.571   1.694  0.00  0.00    +0.045 HD
BRANCH  48  51
ATOM     51  C   UNL     1       3.283  -2.667   1.665  0.00  0.00    -0.032 C 
ATOM     52  H   UNL     1       2.277  -3.137   1.682  0.00  0.00    +0.031 HD
BRANCH  51  53
ATOM     53  C   UNL     1       4.220  -3.576   0.858  0.00  0.00    -0.061 C 
ATOM     54  H   UNL     1       3.851  -3.689  -0.182  0.00  0.00    +0.023 HD
ATOM     55  H   UNL     1       5.248  -3.155   0.829  0.00  0.00    +0.023 HD
ATOM     56  H   UNL     1       4.261  -4.587   1.317  0.00  0.00    +0.023 HD
ENDBRANCH  51  53
BRANCH  51  57
ATOM     57  C   UNL     1       3.769  -2.562   3.115  0.00  0.00    -0.061 C 
ATOM     58  H   UNL     1       4.779  -2.101   3.159  0.00  0.00    +0.023 HD
ATOM     59  H   UNL     1       3.815  -3.571   3.579  0.00  0.00    +0.023 HD
ATOM     60  H   UNL     1       3.065  -1.942   3.711  0.00  0.00    +0.023 HD
ENDBRANCH  51  57
ENDBRANCH  48  51
ENDBRANCH  47  48
BRANCH  47  61
ATOM     61  S   UNL     1       3.118   0.005  -1.296  0.00  0.00    +0.061 S 
ATOM     62  O   UNL     1       2.474  -0.062  -2.653  0.00  0.00    -0.153 OA
ATOM     63  O   UNL     1       4.606  -0.106  -1.488  0.00  0.00    -0.153 OA
BRANCH  61  67
ATOM     64  C   UNL     1       2.202   4.079   0.592  0.00  0.00    +0.120 A 
ATOM     65  C   UNL     1       3.331   3.351   0.984  0.00  0.00    -0.018 A 
ATOM     66  C   UNL     1       3.608   2.106   0.412  0.00  0.00    -0.032 A 
ATOM     67  C   UNL     1       2.749   1.565  -0.554  0.00  0.00    +0.106 A 
ATOM     68  C   UNL     1       1.609   2.284  -0.941  0.00  0.00    -0.032 A 
ATOM     69  C   UNL     1       1.337   3.535  -0.376  0.00  0.00    -0.018 A 
ATOM     70  H   UNL     1       4.005   3.759   1.727  0.00  0.00    +0.065 HD
ATOM     71  H   UNL     1       4.496   1.569   0.719  0.00  0.00    +0.064 HD
ATOM     72  H   UNL     1       0.932   1.882  -1.684  0.00  0.00    +0.064 HD
ATOM     73  H   UNL     1       0.460   4.074  -0.704  0.00  0.00    +0.065 HD
BRANCH  64  74
ATOM     74  O   UNL     1       1.981   5.334   1.179  0.00  0.00    -0.495 OA
BRANCH  74  75
ATOM     75  C   UNL     1       0.897   6.198   0.850  0.00  0.00    +0.079 C 
ATOM     76  H   UNL     1       0.987   7.133   1.441  0.00  0.00    +0.066 HD
ATOM     77  H   UNL     1      -0.068   5.714   1.102  0.00  0.00    +0.066 HD
ATOM     78  H   UNL     1       0.927   6.455  -0.229  0.00  0.00    +0.066 HD
ENDBRANCH  74  75
ENDBRANCH  64  74
ENDBRANCH  61  67
ENDBRANCH  47  61
ENDBRANCH  44  47
ENDBRANCH  42  44
BRANCH  42  79
ATOM     79  O   UNL     1       1.014  -3.537  -1.151  0.00  0.00    -0.389 OA
ATOM     80  H   UNL     1       1.833  -3.575  -1.711  0.00  0.00    +0.210 HD
ENDBRANCH  42  79
ENDBRANCH   1  42
TORSDOF 17
