REMARK  Name = 
REMARK  21 active torsions:
REMARK  status: ('A' for Active; 'I' for Inactive)
REMARK    1  A    between atoms: C_1  and  C_2
REMARK    2  A    between atoms: C_2  and  C_3
REMARK    3  A    between atoms: C_2  and  C_4
REMARK    4  A    between atoms: C_4  and  C_5
REMARK    5  A    between atoms: C_4  and  C_6
REMARK    6  A    between atoms: C_9  and  C_11
REMARK    7  A    between atoms: C_11  and  O_12
REMARK    8  A    between atoms: C_11  and  C_13
REMARK    9  A    between atoms: C_13  and  O_14
REMARK   10  A    between atoms: C_13  and  C_15
REMARK   11  A    between atoms: C_15  and  O_16
REMARK   12  A    between atoms: C_15  and  C_17
REMARK   13  A    between atoms: C_17  and  O_18
REMARK   14  A    between atoms: C_17  and  C_31
REMARK   15  A    between atoms: O_18  and  C_19
REMARK   16  A    between atoms: C_22  and  C_23
REMARK   17  A    between atoms: C_34  and  C_36
REMARK   18  A    between atoms: C_36  and  C_37
REMARK   19  A    between atoms: C_36  and  C_38
REMARK   20  A    between atoms: C_38  and  C_39
REMARK   21  A    between atoms: C_38  and  C_40
REMARK                            x       y       z     vdW  Elec       q    Type
REMARK                         _______ _______ _______ _____ _____    ______ ____
ROOT
ATOM      1  C   UNL     1      -0.982  -0.031  -0.584  0.00  0.00    +0.204 C 
ATOM      2  H   UNL     1      -0.685  -0.036   0.488  0.00  0.00    +0.086 HD
ENDROOT
BRANCH   1   3
ATOM      3  C   UNL     1      -2.195  -0.905  -0.779  0.00  0.00    +0.263 C 
ATOM      4  O   UNL     1      -2.898  -0.764  -1.817  0.00  0.00    -0.271 OA
ATOM      5  N   UNL     1      -2.515  -1.915   0.192  0.00  0.00    -0.253 N 
ATOM      6  C   UNL     1      -3.643  -2.800   0.090  0.00  0.00    +0.222 C 
ATOM      7  O   UNL     1      -4.416  -2.738  -0.906  0.00  0.00    -0.275 OA
ATOM      8  H   UNL     1      -1.885  -2.018   1.019  0.00  0.00    +0.158 HD
BRANCH   6   9
ATOM      9  C   UNL     1      -3.864  -3.851   1.155  0.00  0.00    +0.035 C 
ATOM     10  H   UNL     1      -3.529  -3.404   2.117  0.00  0.00    +0.039 HD
BRANCH   9  11
ATOM     11  C   UNL     1      -5.362  -4.166   1.327  0.00  0.00    -0.054 C 
ATOM     12  H   UNL     1      -5.794  -4.605   0.404  0.00  0.00    +0.024 HD
ATOM     13  H   UNL     1      -5.916  -3.231   1.559  0.00  0.00    +0.024 HD
ATOM     14  H   UNL     1      -5.522  -4.866   2.172  0.00  0.00    +0.024 HD
ENDBRANCH   9  11
BRANCH   9  15
ATOM     15  C   UNL     1      -2.980  -5.104   0.884  0.00  0.00    -0.036 C 
ATOM     16  H   UNL     1      -1.939  -4.747   0.716  0.00  0.00    +0.030 HD
BRANCH  15  17
ATOM     17  C   UNL     1      -2.924  -6.041   2.100  0.00  0.00    -0.062 C 
ATOM     18  H   UNL     1      -2.162  -6.832   1.934  0.00  0.00    +0.023 HD
ATOM     19  H   UNL     1      -3.903  -6.534   2.273  0.00  0.00    +0.023 HD
ATOM     20  H   UNL     1      -2.636  -5.476   3.012  0.00  0.00    +0.023 HD
ENDBRANCH  15  17
BRANCH  15  21
ATOM     21  C   UNL     1      -3.396  -5.889  -0.372  0.00  0.00    -0.062 C 
ATOM     22  H   UNL     1      -3.426  -5.224  -1.260  0.00  0.00    +0.023 HD
ATOM     23  H   UNL     1      -2.655  -6.691  -0.576  0.00  0.00    +0.023 HD
ATOM     24  H   UNL     1      -4.390  -6.364  -0.237  0.00  0.00    +0.023 HD
ENDBRANCH  15  21
ENDBRANCH   9  15
ENDBRANCH   6   9
ENDBRANCH   1   3
BRANCH   1  25
ATOM     25  C   UNL     1       0.197  -0.572  -1.419  0.00  0.00    +0.129 C 
ATOM     26  H   UNL     1      -0.126  -0.565  -2.488  0.00  0.00    +0.066 HD
BRANCH  25  27
ATOM     27  O   UNL     1       0.490  -1.885  -1.003  0.00  0.00    -0.385 OA
ATOM     28  H   UNL     1       0.754  -2.397  -1.812  0.00  0.00    +0.210 HD
ENDBRANCH  25  27
BRANCH  25  29
ATOM     29  C   UNL     1       1.458   0.318  -1.273  0.00  0.00    +0.119 C 
ATOM     30  H   UNL     1       1.197   1.365  -1.563  0.00  0.00    +0.065 HD
BRANCH  29  31
ATOM     31  O   UNL     1       1.915   0.282   0.058  0.00  0.00    -0.386 OA
ATOM     32  H   UNL     1       1.512   1.057   0.529  0.00  0.00    +0.210 HD
ENDBRANCH  29  31
BRANCH  29  33
ATOM     33  C   UNL     1       2.600  -0.147  -2.210  0.00  0.00    +0.159 C 
ATOM     34  H   UNL     1       2.902  -1.176  -1.918  0.00  0.00    +0.072 HD
BRANCH  33  38
ATOM     35  C   UNL     1       6.055   1.174  -0.971  0.00  0.00    +0.222 C 
ATOM     36  O   UNL     1       6.286   2.166  -1.714  0.00  0.00    -0.275 OA
ATOM     37  N   UNL     1       4.851   0.404  -1.145  0.00  0.00    -0.254 N 
ATOM     38  C   UNL     1       3.807   0.749  -2.071  0.00  0.00    +0.250 C 
ATOM     39  O   UNL     1       3.861   1.826  -2.725  0.00  0.00    -0.272 OA
ATOM     40  H   UNL     1       4.719  -0.458  -0.573  0.00  0.00    +0.158 HD
BRANCH  35  41
ATOM     41  C   UNL     1       7.084   0.801   0.077  0.00  0.00    +0.035 C 
ATOM     42  H   UNL     1       7.709   1.706   0.253  0.00  0.00    +0.039 HD
BRANCH  41  43
ATOM     43  C   UNL     1       6.435   0.505   1.439  0.00  0.00    -0.054 C 
ATOM     44  H   UNL     1       5.814  -0.412   1.420  0.00  0.00    +0.024 HD
ATOM     45  H   UNL     1       5.791   1.358   1.745  0.00  0.00    +0.024 HD
ATOM     46  H   UNL     1       7.221   0.376   2.213  0.00  0.00    +0.024 HD
ENDBRANCH  41  43
BRANCH  41  47
ATOM     47  C   UNL     1       8.050  -0.331  -0.384  0.00  0.00    -0.036 C 
ATOM     48  H   UNL     1       8.725  -0.568   0.470  0.00  0.00    +0.030 HD
BRANCH  47  49
ATOM     49  C   UNL     1       8.950   0.144  -1.536  0.00  0.00    -0.062 C 
ATOM     50  H   UNL     1       9.501   1.063  -1.243  0.00  0.00    +0.023 HD
ATOM     51  H   UNL     1       8.348   0.358  -2.445  0.00  0.00    +0.023 HD
ATOM     52  H   UNL     1       9.698  -0.639  -1.784  0.00  0.00    +0.023 HD
ENDBRANCH  47  49
BRANCH  47  53
ATOM     53  C   UNL     1       7.341  -1.637  -0.779  0.00  0.00    -0.062 C 
ATOM     54  H   UNL     1       6.714  -1.493  -1.684  0.00  0.00    +0.023 HD
ATOM     55  H   UNL     1       6.710  -2.015   0.050  0.00  0.00    +0.023 HD
ATOM     56  H   UNL     1       8.095  -2.420  -1.005  0.00  0.00    +0.023 HD
ENDBRANCH  47  53
ENDBRANCH  41  47
ENDBRANCH  35  41
ENDBRANCH  33  38
BRANCH  33  57
ATOM     57  O   UNL     1       2.183  -0.199  -3.553  0.00  0.00    -0.380 OA
ATOM     58  H   UNL     1       1.808   0.689  -3.792  0.00  0.00    +0.211 HD
ENDBRANCH  33  57
ENDBRANCH  29  33
ENDBRANCH  25  29
ENDBRANCH   1  25
BRANCH   1  59
ATOM     59  O   UNL     1      -1.280   1.309  -0.984  0.00  0.00    -0.477 OA
BRANCH  59  60
ATOM     60  C   UNL     1      -2.127   2.194  -0.298  0.00  0.00    +0.122 A 
ATOM     61  C   UNL     1      -2.774   1.851   0.903  0.00  0.00    -0.019 A 
ATOM     62  C   UNL     1      -3.608   2.772   1.543  0.00  0.00    -0.049 A 
ATOM     63  C   UNL     1      -3.821   4.050   0.996  0.00  0.00    +0.001 A 
ATOM     64  C   UNL     1      -3.161   4.391  -0.200  0.00  0.00    -0.049 A 
ATOM     65  C   UNL     1      -2.327   3.469  -0.838  0.00  0.00    -0.019 A 
ATOM     66  H   UNL     1      -2.643   0.878   1.353  0.00  0.00    +0.065 HD
ATOM     67  H   UNL     1      -4.099   2.478   2.463  0.00  0.00    +0.063 HD
ATOM     68  H   UNL     1      -3.266   5.376  -0.634  0.00  0.00    +0.063 HD
ATOM     69  H   UNL     1      -1.826   3.749  -1.756  0.00  0.00    +0.065 HD
BRANCH  63  70
ATOM     70  C   UNL     1      -4.707   5.016   1.695  0.00  0.00    +0.071 A 
ATOM     71  C   UNL     1      -5.418   6.009   0.996  0.00  0.00    -0.036 A 
ATOM     72  C   UNL     1      -6.241   6.891   1.699  0.00  0.00    -0.058 A 
ATOM     73  C   UNL     1      -6.358   6.780   3.084  0.00  0.00    -0.044 A 
ATOM     74  C   UNL     1      -5.649   5.779   3.749  0.00  0.00    +0.028 A 
ATOM     75  N   UNL     1      -4.852   4.930   3.049  0.00  0.00    -0.255 NA
ATOM     76  H   UNL     1      -5.361   6.092  -0.081  0.00  0.00    +0.064 HD
ATOM     77  H   UNL     1      -6.793   7.656   1.169  0.00  0.00    +0.062 HD
ATOM     78  H   UNL     1      -6.995   7.459   3.636  0.00  0.00    +0.063 HD
ATOM     79  H   UNL     1      -5.733   5.676   4.823  0.00  0.00    +0.083 HD
ENDBRANCH  63  70
ENDBRANCH  59  60
ENDBRANCH   1  59
TORSDOF 21
