REMARK  Name = 
REMARK  14 active torsions:
REMARK  status: ('A' for Active; 'I' for Inactive)
REMARK    1  A    between atoms: C_1  and  C_2
REMARK    2  A    between atoms: C_2  and  C_3
REMARK    3  A    between atoms: C_2  and  C_4
REMARK    4  A    between atoms: C_2  and  N_5
REMARK    5  A    between atoms: C_6  and  C_8
REMARK    6  A    between atoms: C_13  and  C_14
REMARK    7  A    between atoms: C_14  and  C_15
REMARK    8  A    between atoms: C_15  and  O_16
REMARK    9  A    between atoms: C_15  and  C_17
REMARK   10  A    between atoms: C_17  and  C_18
REMARK   11  A    between atoms: C_17  and  N_30
REMARK   12  A    between atoms: C_18  and  S_19
REMARK   13  A    between atoms: S_19  and  C_20
REMARK   14  A    between atoms: C_31  and  C_33
REMARK                            x       y       z     vdW  Elec       q    Type
REMARK                         _______ _______ _______ _____ _____    ______ ____
ROOT
ATOM      1  C   UNL     1      -1.048  -0.369   0.007  0.00  0.00    +0.059 C 
ATOM      2  H   UNL     1      -1.776  -0.742   0.759  0.00  0.00    +0.053 HD
ENDROOT
BRANCH   1   3
ATOM      3  N   UNL     1      -1.622   0.844  -0.588  0.00  0.00    -0.305 N 
ATOM      4  C   UNL     1      -2.182   1.905   0.201  0.00  0.00    +0.245 C 
ATOM      5  O   UNL     1      -2.333   1.762   1.444  0.00  0.00    -0.270 OA
ATOM      6  H   UNL     1      -1.652   0.935  -1.628  0.00  0.00    +0.149 HD
BRANCH   4   7
ATOM      7  C   UNL     1      -2.606   3.164  -0.445  0.00  0.00    +0.047 A 
ATOM      8  C   UNL     1      -3.475   3.092  -1.544  0.00  0.00    -0.031 A 
ATOM      9  C   UNL     1      -3.929   4.261  -2.152  0.00  0.00    +0.029 A 
ATOM     10  N   UNL     1      -3.529   5.472  -1.690  0.00  0.00    -0.255 NA
ATOM     11  C   UNL     1      -2.677   5.593  -0.638  0.00  0.00    +0.072 A 
ATOM     12  C   UNL     1      -2.283   6.867  -0.211  0.00  0.00    -0.036 A 
ATOM     13  C   UNL     1      -1.386   7.005   0.849  0.00  0.00    -0.060 A 
ATOM     14  C   UNL     1      -0.872   5.873   1.484  0.00  0.00    -0.061 A 
ATOM     15  C   UNL     1      -1.259   4.595   1.071  0.00  0.00    -0.052 A 
ATOM     16  C   UNL     1      -2.181   4.436   0.015  0.00  0.00    +0.012 A 
ATOM     17  H   UNL     1      -3.820   2.135  -1.915  0.00  0.00    +0.064 HD
ATOM     18  H   UNL     1      -4.608   4.206  -2.993  0.00  0.00    +0.083 HD
ATOM     19  H   UNL     1      -2.666   7.750  -0.706  0.00  0.00    +0.064 HD
ATOM     20  H   UNL     1      -1.081   7.992   1.173  0.00  0.00    +0.062 HD
ATOM     21  H   UNL     1      -0.166   5.987   2.297  0.00  0.00    +0.062 HD
ATOM     22  H   UNL     1      -0.819   3.745   1.573  0.00  0.00    +0.062 HD
ENDBRANCH   4   7
ENDBRANCH   1   3
BRANCH   1  23
ATOM     23  C   UNL     1      -0.934  -1.482  -1.060  0.00  0.00    +0.019 C 
ATOM     24  H   UNL     1      -1.885  -1.551  -1.631  0.00  0.00    +0.040 HD
ATOM     25  H   UNL     1      -0.141  -1.240  -1.790  0.00  0.00    +0.040 HD
BRANCH  23  26
ATOM     26  S   UNL     1      -0.549  -3.123  -0.340  0.00  0.00    -0.123 S 
BRANCH  26  27
ATOM     27  C   UNL     1      -2.225  -3.476   0.201  0.00  0.00    +0.009 A 
ATOM     28  C   UNL     1      -2.596  -3.237   1.530  0.00  0.00    -0.048 A 
ATOM     29  C   UNL     1      -3.897  -3.514   1.959  0.00  0.00    -0.053 A 
ATOM     30  C   UNL     1      -4.837  -4.043   1.063  0.00  0.00    -0.018 A 
ATOM     31  C   UNL     1      -6.147  -4.323   1.481  0.00  0.00    -0.054 A 
ATOM     32  C   UNL     1      -7.074  -4.853   0.578  0.00  0.00    -0.061 A 
ATOM     33  C   UNL     1      -6.702  -5.106  -0.745  0.00  0.00    -0.061 A 
ATOM     34  C   UNL     1      -5.400  -4.832  -1.175  0.00  0.00    -0.054 A 
ATOM     35  C   UNL     1      -4.460  -4.299  -0.279  0.00  0.00    -0.017 A 
ATOM     36  C   UNL     1      -3.151  -4.018  -0.698  0.00  0.00    -0.041 A 
ATOM     37  H   UNL     1      -1.877  -2.832   2.230  0.00  0.00    +0.063 HD
ATOM     38  H   UNL     1      -4.167  -3.315   2.990  0.00  0.00    +0.062 HD
ATOM     39  H   UNL     1      -6.453  -4.134   2.503  0.00  0.00    +0.062 HD
ATOM     40  H   UNL     1      -8.083  -5.068   0.905  0.00  0.00    +0.062 HD
ATOM     41  H   UNL     1      -7.424  -5.516  -1.439  0.00  0.00    +0.062 HD
ATOM     42  H   UNL     1      -5.130  -5.034  -2.204  0.00  0.00    +0.062 HD
ATOM     43  H   UNL     1      -2.850  -4.210  -1.722  0.00  0.00    +0.063 HD
ENDBRANCH  26  27
ENDBRANCH  23  26
ENDBRANCH   1  23
BRANCH   1  44
ATOM     44  C   UNL     1       0.300  -0.081   0.741  0.00  0.00    +0.078 C 
ATOM     45  H   UNL     1       0.857  -1.039   0.804  0.00  0.00    +0.062 HD
BRANCH  44  46
ATOM     46  C   UNL     1       1.218   0.985   0.077  0.00  0.00    +0.001 C 
ATOM     47  H   UNL     1       0.646   1.916  -0.120  0.00  0.00    +0.034 HD
ATOM     48  H   UNL     1       1.999   1.296   0.804  0.00  0.00    +0.034 HD
BRANCH  46  54
ATOM     49  C   UNL     1       3.128  -0.221  -1.172  0.00  0.00    +0.040 A 
ATOM     50  C   UNL     1       3.697  -0.626  -2.393  0.00  0.00    -0.049 A 
ATOM     51  C   UNL     1       3.092  -0.304  -3.607  0.00  0.00    -0.061 A 
ATOM     52  C   UNL     1       1.920   0.448  -3.624  0.00  0.00    -0.061 A 
ATOM     53  C   UNL     1       1.337   0.860  -2.427  0.00  0.00    -0.058 A 
ATOM     54  C   UNL     1       1.903   0.507  -1.187  0.00  0.00    -0.033 A 
ATOM     55  H   UNL     1       4.617  -1.198  -2.407  0.00  0.00    +0.063 HD
ATOM     56  H   UNL     1       3.542  -0.624  -4.538  0.00  0.00    +0.062 HD
ATOM     57  H   UNL     1       1.464   0.716  -4.568  0.00  0.00    +0.062 HD
ATOM     58  H   UNL     1       0.439   1.461  -2.470  0.00  0.00    +0.062 HD
BRANCH  49  60
ATOM     59  N   UNL     1       5.298  -0.302   0.129  0.00  0.00    -0.307 N 
ATOM     60  C   UNL     1       3.874  -0.519   0.075  0.00  0.00    +0.245 C 
ATOM     61  O   UNL     1       3.264  -0.972   1.078  0.00  0.00    -0.270 OA
ATOM     62  H   UNL     1       5.736   0.159  -0.701  0.00  0.00    +0.150 HD
BRANCH  59  63
ATOM     63  C   UNL     1       6.166  -0.658   1.269  0.00  0.00    +0.026 C 
BRANCH  63  64
ATOM     64  C   UNL     1       7.625  -0.295   0.921  0.00  0.00    -0.044 C 
ATOM     65  H   UNL     1       8.310  -0.554   1.757  0.00  0.00    +0.025 HD
ATOM     66  H   UNL     1       7.716   0.794   0.718  0.00  0.00    +0.025 HD
ATOM     67  H   UNL     1       7.955  -0.847   0.014  0.00  0.00    +0.025 HD
ENDBRANCH  63  64
BRANCH  63  68
ATOM     68  C   UNL     1       6.092  -2.173   1.543  0.00  0.00    -0.044 C 
ATOM     69  H   UNL     1       6.821  -2.464   2.330  0.00  0.00    +0.025 HD
ATOM     70  H   UNL     1       5.084  -2.475   1.893  0.00  0.00    +0.025 HD
ATOM     71  H   UNL     1       6.325  -2.742   0.618  0.00  0.00    +0.025 HD
ENDBRANCH  63  68
BRANCH  63  72
ATOM     72  C   UNL     1       5.752   0.136   2.524  0.00  0.00    -0.044 C 
ATOM     73  H   UNL     1       6.472  -0.040   3.353  0.00  0.00    +0.025 HD
ATOM     74  H   UNL     1       4.749  -0.166   2.887  0.00  0.00    +0.025 HD
ATOM     75  H   UNL     1       5.731   1.224   2.301  0.00  0.00    +0.025 HD
ENDBRANCH  63  72
ENDBRANCH  59  63
ENDBRANCH  49  60
ENDBRANCH  46  54
ENDBRANCH  44  46
BRANCH  44  76
ATOM     76  O   UNL     1       0.010   0.335   2.052  0.00  0.00    -0.390 OA
ATOM     77  H   UNL     1       0.819   0.161   2.603  0.00  0.00    +0.210 HD
ENDBRANCH  44  76
ENDBRANCH   1  44
TORSDOF 14
