REMARK  Name = 
REMARK  17 active torsions:
REMARK  status: ('A' for Active; 'I' for Inactive)
REMARK    1  A    between atoms: C_1  and  C_2
REMARK    2  A    between atoms: C_2  and  C_3
REMARK    3  A    between atoms: C_2  and  C_4
REMARK    4  A    between atoms: C_4  and  C_5
REMARK    5  A    between atoms: C_5  and  C_6
REMARK    6  A    between atoms: C_6  and  C_7
REMARK    7  A    between atoms: C_10  and  O_11
REMARK    8  A    between atoms: C_17  and  S_18
REMARK    9  A    between atoms: S_18  and  C_19
REMARK   10  A    between atoms: C_21  and  C_22
REMARK   11  A    between atoms: C_23  and  N_24
REMARK   12  A    between atoms: C_25  and  C_27
REMARK   13  A    between atoms: C_34  and  C_35
REMARK   14  A    between atoms: C_35  and  C_36
REMARK   15  A    between atoms: C_35  and  C_37
REMARK   16  A    between atoms: C_35  and  C_38
REMARK   17  A    between atoms: C_39  and  O_40
REMARK                            x       y       z     vdW  Elec       q    Type
REMARK                         _______ _______ _______ _____ _____    ______ ____
ROOT
ATOM      1  S   UNL     1       0.046   3.996  -0.789  0.00  0.00    -0.079 S 
ENDROOT
BRANCH   1   6
ATOM      2  C   UNL     1      -2.021   0.016  -1.957  0.00  0.00    +0.123 C 
ATOM      3  C   UNL     1      -2.706   0.764  -0.777  0.00  0.00    +0.051 C 
ATOM      4  C   UNL     1      -1.887   1.944  -0.339  0.00  0.00    +0.180 C 
ATOM      5  O   UNL     1      -2.014   2.385   0.832  0.00  0.00    -0.291 OA
ATOM      6  C   UNL     1      -1.025   2.642  -1.311  0.00  0.00    +0.135 C 
ATOM      7  C   UNL     1      -1.012   2.213  -2.580  0.00  0.00    +0.297 C 
ATOM      8  O   UNL     1      -1.656   1.015  -2.925  0.00  0.00    -0.456 OA
ATOM      9  H   UNL     1      -3.693   1.155  -1.104  0.00  0.00    +0.038 HD
ATOM     10  H   UNL     1      -2.887   0.096   0.087  0.00  0.00    +0.038 HD
BRANCH   2  11
ATOM     11  C   UNL     1      -3.052  -0.903  -2.692  0.00  0.00    -0.008 C 
ATOM     12  H   UNL     1      -2.575  -1.302  -3.613  0.00  0.00    +0.031 HD
ATOM     13  H   UNL     1      -3.876  -0.264  -3.076  0.00  0.00    +0.031 HD
BRANCH  11  14
ATOM     14  C   UNL     1      -3.669  -2.102  -1.938  0.00  0.00    -0.024 C 
ATOM     15  H   UNL     1      -4.239  -2.704  -2.679  0.00  0.00    +0.031 HD
ATOM     16  H   UNL     1      -2.879  -2.782  -1.572  0.00  0.00    +0.031 HD
BRANCH  14  17
ATOM     17  C   UNL     1      -4.638  -1.719  -0.845  0.00  0.00    -0.047 A 
ATOM     18  C   UNL     1      -4.435  -2.162   0.474  0.00  0.00    -0.055 A 
ATOM     19  C   UNL     1      -5.335  -1.812   1.484  0.00  0.00    -0.020 A 
ATOM     20  C   UNL     1      -6.459  -1.034   1.188  0.00  0.00    +0.117 A 
ATOM     21  C   UNL     1      -6.686  -0.616  -0.129  0.00  0.00    -0.020 A 
ATOM     22  C   UNL     1      -5.788  -0.965  -1.142  0.00  0.00    -0.055 A 
ATOM     23  H   UNL     1      -3.583  -2.779   0.725  0.00  0.00    +0.062 HD
ATOM     24  H   UNL     1      -5.162  -2.148   2.498  0.00  0.00    +0.065 HD
ATOM     25  H   UNL     1      -7.560  -0.025  -0.370  0.00  0.00    +0.065 HD
ATOM     26  H   UNL     1      -5.991  -0.646  -2.156  0.00  0.00    +0.062 HD
BRANCH  20  27
ATOM     27  O   UNL     1      -7.345  -0.690   2.206  0.00  0.00    -0.507 OA
ATOM     28  H   UNL     1      -8.169  -0.129   2.023  0.00  0.00    +0.292 HD
ENDBRANCH  20  27
ENDBRANCH  14  17
ENDBRANCH  11  14
ENDBRANCH   2  11
BRANCH   2  29
ATOM     29  C   UNL     1      -0.679  -0.708  -1.519  0.00  0.00    -0.006 C 
ATOM     30  H   UNL     1       0.097   0.080  -1.417  0.00  0.00    +0.033 HD
BRANCH  29  31
ATOM     31  C   UNL     1      -0.126  -1.659  -2.593  0.00  0.00    -0.059 C 
ATOM     32  H   UNL     1       0.913  -1.961  -2.336  0.00  0.00    +0.023 HD
ATOM     33  H   UNL     1      -0.095  -1.151  -3.580  0.00  0.00    +0.023 HD
ATOM     34  H   UNL     1      -0.743  -2.578  -2.670  0.00  0.00    +0.023 HD
ENDBRANCH  29  31
BRANCH  29  35
ATOM     35  C   UNL     1      -0.684  -1.395  -0.141  0.00  0.00    -0.059 C 
ATOM     36  H   UNL     1       0.291  -1.896   0.036  0.00  0.00    +0.023 HD
ATOM     37  H   UNL     1      -1.472  -2.157  -0.052  0.00  0.00    +0.023 HD
ATOM     38  H   UNL     1      -0.803  -0.647   0.671  0.00  0.00    +0.023 HD
ENDBRANCH  29  35
ENDBRANCH   2  29
BRANCH   7  39
ATOM     39  O   UNL     1      -0.347   2.937  -3.565  0.00  0.00    -0.479 OA
ATOM     40  H   UNL     1      -0.326   2.605  -4.521  0.00  0.00    +0.295 HD
ENDBRANCH   7  39
ENDBRANCH   1   6
BRANCH   1  41
ATOM     41  C   UNL     1       1.375   2.878  -0.278  0.00  0.00    +0.017 A 
ATOM     42  C   UNL     1       2.075   2.280  -1.337  0.00  0.00    -0.043 A 
ATOM     43  C   UNL     1       2.900   1.171  -1.137  0.00  0.00    -0.028 A 
ATOM     44  C   UNL     1       3.069   0.669   0.161  0.00  0.00    +0.037 A 
ATOM     45  C   UNL     1       2.486   1.344   1.240  0.00  0.00    -0.035 A 
ATOM     46  C   UNL     1       1.661   2.484   1.072  0.00  0.00    -0.026 A 
ATOM     47  H   UNL     1       1.913   2.637  -2.346  0.00  0.00    +0.063 HD
ATOM     48  H   UNL     1       2.720   0.985   2.231  0.00  0.00    +0.064 HD
BRANCH  44  49
ATOM     49  N   UNL     1       3.893  -0.487   0.392  0.00  0.00    -0.281 N 
ATOM     50  C   UNL     1       3.483  -1.589   1.222  0.00  0.00    +0.250 C 
ATOM     51  O   UNL     1       2.397  -1.526   1.860  0.00  0.00    -0.270 OA
ATOM     52  H   UNL     1       4.805  -0.539  -0.112  0.00  0.00    +0.155 HD
BRANCH  50  53
ATOM     53  C   UNL     1       4.315  -2.809   1.340  0.00  0.00    +0.055 A 
ATOM     54  C   UNL     1       5.166  -3.224   0.300  0.00  0.00    -0.047 A 
ATOM     55  C   UNL     1       5.930  -4.384   0.440  0.00  0.00    -0.043 A 
ATOM     56  C   UNL     1       5.834  -5.130   1.614  0.00  0.00    +0.028 A 
ATOM     57  N   UNL     1       4.999  -4.729   2.608  0.00  0.00    -0.263 NA
ATOM     58  C   UNL     1       4.243  -3.604   2.498  0.00  0.00    +0.040 A 
ATOM     59  H   UNL     1       5.226  -2.674  -0.629  0.00  0.00    +0.063 HD
ATOM     60  H   UNL     1       6.584  -4.707  -0.360  0.00  0.00    +0.063 HD
ATOM     61  H   UNL     1       6.419  -6.032   1.734  0.00  0.00    +0.083 HD
ATOM     62  H   UNL     1       3.596  -3.324   3.319  0.00  0.00    +0.084 HD
ENDBRANCH  50  53
ENDBRANCH  44  49
BRANCH  43  63
ATOM     63  C   UNL     1       3.549   0.501  -2.319  0.00  0.00    -0.038 C 
ATOM     64  H   UNL     1       4.646   0.663  -2.282  0.00  0.00    +0.028 HD
ATOM     65  H   UNL     1       3.167   0.905  -3.281  0.00  0.00    +0.028 HD
ATOM     66  H   UNL     1       3.337  -0.589  -2.300  0.00  0.00    +0.028 HD
ENDBRANCH  43  63
BRANCH  46  67
ATOM     67  C   UNL     1       1.248   3.241   2.371  0.00  0.00    -0.012 C 
BRANCH  67  68
ATOM     68  C   UNL     1       0.433   2.300   3.288  0.00  0.00    -0.056 C 
ATOM     69  H   UNL     1       0.055   2.845   4.181  0.00  0.00    +0.024 HD
ATOM     70  H   UNL     1       1.043   1.452   3.661  0.00  0.00    +0.024 HD
ATOM     71  H   UNL     1      -0.436   1.879   2.744  0.00  0.00    +0.024 HD
ENDBRANCH  67  68
BRANCH  67  72
ATOM     72  C   UNL     1       0.417   4.526   2.162  0.00  0.00    -0.056 C 
ATOM     73  H   UNL     1       0.262   5.056   3.127  0.00  0.00    +0.024 HD
ATOM     74  H   UNL     1       0.944   5.236   1.489  0.00  0.00    +0.024 HD
ATOM     75  H   UNL     1      -0.598   4.298   1.784  0.00  0.00    +0.024 HD
ENDBRANCH  67  72
BRANCH  67  76
ATOM     76  C   UNL     1       2.531   3.681   3.122  0.00  0.00    -0.056 C 
ATOM     77  H   UNL     1       2.281   4.260   4.037  0.00  0.00    +0.024 HD
ATOM     78  H   UNL     1       3.161   4.320   2.466  0.00  0.00    +0.024 HD
ATOM     79  H   UNL     1       3.143   2.817   3.453  0.00  0.00    +0.024 HD
ENDBRANCH  67  76
ENDBRANCH  46  67
ENDBRANCH   1  41
TORSDOF 17
