REMARK  Name = 
REMARK  14 active torsions:
REMARK  status: ('A' for Active; 'I' for Inactive)
REMARK    1  A    between atoms: C_1  and  C_2
REMARK    2  A    between atoms: C_2  and  C_3
REMARK    3  A    between atoms: C_2  and  C_4
REMARK    4  A    between atoms: C_4  and  C_5
REMARK    5  A    between atoms: C_5  and  N_6
REMARK    6  A    between atoms: N_6  and  C_7
REMARK    7  A    between atoms: N_6  and  S_33
REMARK    8  A    between atoms: C_7  and  C_8
REMARK    9  A    between atoms: C_8  and  O_9
REMARK   10  A    between atoms: C_8  and  C_10
REMARK   11  A    between atoms: C_24  and  C_25
REMARK   12  A    between atoms: C_25  and  C_26
REMARK   13  A    between atoms: C_25  and  C_27
REMARK   14  A    between atoms: S_33  and  C_36
REMARK                            x       y       z     vdW  Elec       q    Type
REMARK                         _______ _______ _______ _____ _____    ______ ____
ROOT
ATOM      1  C   UNL     1      -0.267   0.743   0.362  0.00  0.00    +0.054 C 
ATOM      2  C   UNL     1      -0.507   2.241   0.665  0.00  0.00    -0.007 C 
ATOM      3  C   UNL     1      -1.916   2.663   0.325  0.00  0.00    -0.045 A 
ATOM      4  C   UNL     1      -2.792   3.096   1.333  0.00  0.00    -0.055 A 
ATOM      5  C   UNL     1      -4.114   3.431   1.023  0.00  0.00    -0.020 A 
ATOM      6  C   UNL     1      -4.592   3.297  -0.285  0.00  0.00    +0.121 A 
ATOM      7  O   UNL     1      -5.955   3.525  -0.528  0.00  0.00    -0.492 OA
ATOM      8  C   UNL     1      -6.756   2.750  -1.428  0.00  0.00    +0.090 C 
ATOM      9  C   UNL     1      -7.306   1.485  -0.748  0.00  0.00    -0.018 C 
ATOM     10  C   UNL     1      -6.196   0.609  -0.154  0.00  0.00    -0.042 C 
ATOM     11  C   UNL     1      -6.719  -0.752   0.316  0.00  0.00    +0.024 C 
ATOM     12  C   UNL     1      -5.648  -1.445   1.105  0.00  0.00    +0.214 C 
ATOM     13  O   UNL     1      -5.768  -1.559   2.355  0.00  0.00    -0.276 OA
ATOM     14  N   UNL     1      -4.458  -1.899   0.448  0.00  0.00    -0.304 N 
ATOM     15  C   UNL     1      -3.140  -1.826   1.091  0.00  0.00    +0.102 C 
ATOM     16  C   UNL     1      -2.244  -0.872   0.337  0.00  0.00    +0.234 C 
ATOM     17  O   UNL     1      -2.327  -0.798  -0.920  0.00  0.00    -0.274 OA
ATOM     18  N   UNL     1      -1.275  -0.081   1.044  0.00  0.00    -0.308 N 
ATOM     19  C   UNL     1      -3.702   2.916  -1.305  0.00  0.00    -0.020 A 
ATOM     20  C   UNL     1      -2.373   2.610  -1.002  0.00  0.00    -0.055 A 
ATOM     21  H   UNL     1      -0.351   0.598  -0.737  0.00  0.00    +0.053 HD
ATOM     22  H   UNL     1       0.195   2.862   0.068  0.00  0.00    +0.033 HD
ATOM     23  H   UNL     1      -0.293   2.445   1.736  0.00  0.00    +0.033 HD
ATOM     24  H   UNL     1      -2.460   3.159   2.361  0.00  0.00    +0.062 HD
ATOM     25  H   UNL     1      -4.786   3.739   1.814  0.00  0.00    +0.065 HD
ATOM     26  H   UNL     1      -7.619   3.373  -1.744  0.00  0.00    +0.070 HD
ATOM     27  H   UNL     1      -6.201   2.481  -2.349  0.00  0.00    +0.070 HD
ATOM     28  H   UNL     1      -8.010   1.783   0.060  0.00  0.00    +0.030 HD
ATOM     29  H   UNL     1      -7.876   0.902  -1.504  0.00  0.00    +0.030 HD
ATOM     30  H   UNL     1      -5.398   0.449  -0.912  0.00  0.00    +0.027 HD
ATOM     31  H   UNL     1      -5.760   1.133   0.722  0.00  0.00    +0.027 HD
ATOM     32  H   UNL     1      -6.998  -1.375  -0.560  0.00  0.00    +0.036 HD
ATOM     33  H   UNL     1      -7.621  -0.614   0.952  0.00  0.00    +0.036 HD
ATOM     34  H   UNL     1      -4.516  -2.117  -0.572  0.00  0.00    +0.149 HD
ATOM     35  H   UNL     1      -3.256  -1.412   2.118  0.00  0.00    +0.060 HD
ATOM     36  H   UNL     1      -1.296  -0.080   2.088  0.00  0.00    +0.149 HD
ATOM     37  H   UNL     1      -4.025   2.855  -2.334  0.00  0.00    +0.065 HD
ATOM     38  H   UNL     1      -1.706   2.308  -1.800  0.00  0.00    +0.062 HD
ENDROOT
BRANCH  15  39
ATOM     39  C   UNL     1      -2.493  -3.229   1.228  0.00  0.00    -0.020 C 
ATOM     40  H   UNL     1      -1.488  -3.097   1.690  0.00  0.00    +0.032 HD
BRANCH  39  41
ATOM     41  C   UNL     1      -2.292  -3.942  -0.120  0.00  0.00    -0.061 C 
ATOM     42  H   UNL     1      -1.781  -4.915   0.041  0.00  0.00    +0.023 HD
ATOM     43  H   UNL     1      -1.651  -3.338  -0.793  0.00  0.00    +0.023 HD
ATOM     44  H   UNL     1      -3.264  -4.139  -0.618  0.00  0.00    +0.023 HD
ENDBRANCH  39  41
BRANCH  39  45
ATOM     45  C   UNL     1      -3.311  -4.116   2.176  0.00  0.00    -0.061 C 
ATOM     46  H   UNL     1      -3.423  -3.623   3.166  0.00  0.00    +0.023 HD
ATOM     47  H   UNL     1      -2.795  -5.087   2.334  0.00  0.00    +0.023 HD
ATOM     48  H   UNL     1      -4.322  -4.314   1.758  0.00  0.00    +0.023 HD
ENDBRANCH  39  45
ENDBRANCH  15  39
BRANCH   1  49
ATOM     49  C   UNL     1       1.151   0.270   0.771  0.00  0.00    +0.088 C 
ATOM     50  H   UNL     1       1.195  -0.824   0.573  0.00  0.00    +0.063 HD
BRANCH  49  51
ATOM     51  C   UNL     1       2.255   0.974  -0.063  0.00  0.00    +0.048 C 
ATOM     52  H   UNL     1       2.509   1.945   0.411  0.00  0.00    +0.047 HD
ATOM     53  H   UNL     1       1.862   1.254  -1.063  0.00  0.00    +0.047 HD
BRANCH  51  54
ATOM     54  N   UNL     1       3.491   0.181  -0.257  0.00  0.00    -0.174 NA
BRANCH  54  55
ATOM     55  S   UNL     1       3.258  -1.177  -1.335  0.00  0.00    +0.061 S 
ATOM     56  O   UNL     1       2.816  -2.391  -0.565  0.00  0.00    -0.153 OA
ATOM     57  O   UNL     1       2.221  -0.864  -2.379  0.00  0.00    -0.153 OA
BRANCH  55  58
ATOM     58  C   UNL     1       4.790  -1.504  -2.137  0.00  0.00    +0.105 A 
ATOM     59  C   UNL     1       5.565  -2.616  -1.776  0.00  0.00    -0.035 A 
ATOM     60  C   UNL     1       6.803  -2.837  -2.389  0.00  0.00    -0.060 A 
ATOM     61  C   UNL     1       7.272  -1.947  -3.360  0.00  0.00    -0.062 A 
ATOM     62  C   UNL     1       6.505  -0.835  -3.718  0.00  0.00    -0.060 A 
ATOM     63  C   UNL     1       5.267  -0.613  -3.108  0.00  0.00    -0.035 A 
ATOM     64  H   UNL     1       5.221  -3.305  -1.016  0.00  0.00    +0.064 HD
ATOM     65  H   UNL     1       7.400  -3.694  -2.107  0.00  0.00    +0.062 HD
ATOM     66  H   UNL     1       8.232  -2.118  -3.831  0.00  0.00    +0.062 HD
ATOM     67  H   UNL     1       6.872  -0.144  -4.466  0.00  0.00    +0.062 HD
ATOM     68  H   UNL     1       4.686   0.258  -3.384  0.00  0.00    +0.064 HD
ENDBRANCH  55  58
ENDBRANCH  54  55
BRANCH  54  69
ATOM     69  C   UNL     1       4.181  -0.236   0.978  0.00  0.00    +0.021 C 
ATOM     70  H   UNL     1       3.476  -0.715   1.687  0.00  0.00    +0.044 HD
ATOM     71  H   UNL     1       4.937  -1.018   0.753  0.00  0.00    +0.044 HD
BRANCH  69  72
ATOM     72  C   UNL     1       4.900   0.936   1.675  0.00  0.00    -0.036 C 
ATOM     73  H   UNL     1       5.312   0.548   2.632  0.00  0.00    +0.028 HD
ATOM     74  H   UNL     1       4.166   1.717   1.963  0.00  0.00    +0.028 HD
BRANCH  72  75
ATOM     75  C   UNL     1       6.068   1.583   0.885  0.00  0.00    -0.046 C 
ATOM     76  H   UNL     1       6.556   2.297   1.585  0.00  0.00    +0.030 HD
BRANCH  75  77
ATOM     77  C   UNL     1       5.597   2.408  -0.320  0.00  0.00    -0.063 C 
ATOM     78  H   UNL     1       6.437   3.030  -0.698  0.00  0.00    +0.023 HD
ATOM     79  H   UNL     1       4.771   3.089  -0.027  0.00  0.00    +0.023 HD
ATOM     80  H   UNL     1       5.260   1.756  -1.152  0.00  0.00    +0.023 HD
ENDBRANCH  75  77
BRANCH  75  81
ATOM     81  C   UNL     1       7.141   0.568   0.468  0.00  0.00    -0.063 C 
ATOM     82  H   UNL     1       8.041   1.103   0.096  0.00  0.00    +0.023 HD
ATOM     83  H   UNL     1       6.774  -0.093  -0.345  0.00  0.00    +0.023 HD
ATOM     84  H   UNL     1       7.443  -0.055   1.336  0.00  0.00    +0.023 HD
ENDBRANCH  75  81
ENDBRANCH  72  75
ENDBRANCH  69  72
ENDBRANCH  54  69
ENDBRANCH  51  54
ENDBRANCH  49  51
BRANCH  49  85
ATOM     85  O   UNL     1       1.369   0.522   2.138  0.00  0.00    -0.389 OA
ATOM     86  H   UNL     1       1.055  -0.275   2.640  0.00  0.00    +0.210 HD
ENDBRANCH  49  85
ENDBRANCH   1  49
TORSDOF 14
