REMARK  Name = 
REMARK  7 active torsions:
REMARK  status: ('A' for Active; 'I' for Inactive)
REMARK    1  A    between atoms: O_1  and  C_2
REMARK    2  A    between atoms: C_14  and  C_15
REMARK    3  A    between atoms: C_15  and  C_16
REMARK    4  A    between atoms: C_15  and  C_19
REMARK    5  A    between atoms: C_23  and  N_24
REMARK    6  A    between atoms: N_24  and  S_25
REMARK    7  A    between atoms: S_25  and  C_28
REMARK                            x       y       z     vdW  Elec       q    Type
REMARK                         _______ _______ _______ _____ _____    ______ ____
ROOT
ATOM      1  C   UNL     1      -1.404   0.107  -2.135  0.00  0.00    +0.022 C 
ATOM      2  H   UNL     1      -1.593   1.189  -2.295  0.00  0.00    +0.040 HD
ENDROOT
BRANCH   1  15
ATOM      3  C   UNL     1      -0.818  -1.281  -0.041  0.00  0.00    +0.292 A 
ATOM      4  O   UNL     1      -0.787  -1.432   1.277  0.00  0.00    -0.429 OA
ATOM      5  C   UNL     1      -1.214  -0.516   2.137  0.00  0.00    +0.116 A 
ATOM      6  C   UNL     1      -1.115  -0.856   3.604  0.00  0.00    +0.006 C 
ATOM      7  C   UNL     1      -2.419  -1.446   4.163  0.00  0.00    -0.046 C 
ATOM      8  C   UNL     1      -3.503  -0.400   4.478  0.00  0.00    -0.053 C 
ATOM      9  C   UNL     1      -4.229   0.129   3.223  0.00  0.00    -0.053 C 
ATOM     10  C   UNL     1      -3.820   1.559   2.826  0.00  0.00    -0.049 C 
ATOM     11  C   UNL     1      -2.314   1.751   2.592  0.00  0.00    -0.021 C 
ATOM     12  C   UNL     1      -1.744   0.702   1.657  0.00  0.00    +0.038 A 
ATOM     13  C   UNL     1      -1.813   0.891   0.264  0.00  0.00    +0.196 A 
ATOM     14  O   UNL     1      -2.327   1.950  -0.193  0.00  0.00    -0.287 OA
ATOM     15  C   UNL     1      -1.323  -0.097  -0.618  0.00  0.00    +0.087 A 
ATOM     16  H   UNL     1      -0.323  -1.628   3.717  0.00  0.00    +0.034 HD
ATOM     17  H   UNL     1      -0.765  -0.001   4.216  0.00  0.00    +0.034 HD
ATOM     18  H   UNL     1      -2.816  -2.227   3.477  0.00  0.00    +0.027 HD
ATOM     19  H   UNL     1      -2.169  -1.962   5.116  0.00  0.00    +0.027 HD
ATOM     20  H   UNL     1      -4.260  -0.898   5.122  0.00  0.00    +0.027 HD
ATOM     21  H   UNL     1      -3.081   0.428   5.088  0.00  0.00    +0.027 HD
ATOM     22  H   UNL     1      -5.322   0.148   3.431  0.00  0.00    +0.027 HD
ATOM     23  H   UNL     1      -4.098  -0.558   2.359  0.00  0.00    +0.027 HD
ATOM     24  H   UNL     1      -4.149   2.265   3.619  0.00  0.00    +0.027 HD
ATOM     25  H   UNL     1      -4.365   1.833   1.897  0.00  0.00    +0.027 HD
ATOM     26  H   UNL     1      -2.151   2.764   2.165  0.00  0.00    +0.032 HD
ATOM     27  H   UNL     1      -1.781   1.779   3.561  0.00  0.00    +0.032 HD
BRANCH   3  28
ATOM     28  O   UNL     1      -0.344  -2.320  -0.829  0.00  0.00    -0.480 OA
ATOM     29  H   UNL     1       0.020  -3.167  -0.409  0.00  0.00    +0.295 HD
ENDBRANCH   3  28
ENDBRANCH   1  15
BRANCH   1  30
ATOM     30  C   UNL     1      -0.049  -0.081  -2.837  0.00  0.00    -0.038 A 
ATOM     31  C   UNL     1       0.422  -1.307  -3.356  0.00  0.00    -0.058 A 
ATOM     32  C   UNL     1       1.718  -1.423  -3.863  0.00  0.00    -0.060 A 
ATOM     33  C   UNL     1       2.582  -0.331  -3.840  0.00  0.00    -0.039 A 
ATOM     34  C   UNL     1       2.149   0.893  -3.321  0.00  0.00    +0.048 A 
ATOM     35  C   UNL     1       0.842   1.016  -2.836  0.00  0.00    -0.036 A 
ATOM     36  H   UNL     1      -0.181  -2.195  -3.365  0.00  0.00    +0.062 HD
ATOM     37  H   UNL     1       2.061  -2.372  -4.256  0.00  0.00    +0.062 HD
ATOM     38  H   UNL     1       3.591  -0.443  -4.216  0.00  0.00    +0.064 HD
ATOM     39  H   UNL     1       0.540   1.961  -2.400  0.00  0.00    +0.064 HD
BRANCH  34  40
ATOM     40  N   UNL     1       3.054   1.996  -3.207  0.00  0.00    -0.216 N 
ATOM     41  H   UNL     1       2.678   2.967  -3.278  0.00  0.00    +0.174 HD
BRANCH  40  42
ATOM     42  S   UNL     1       4.569   1.784  -2.395  0.00  0.00    +0.073 S 
ATOM     43  O   UNL     1       5.060   3.107  -1.878  0.00  0.00    -0.150 OA
ATOM     44  O   UNL     1       5.579   1.244  -3.369  0.00  0.00    -0.150 OA
BRANCH  42  45
ATOM     45  C   UNL     1       4.338   0.672  -1.031  0.00  0.00    +0.116 A 
ATOM     46  C   UNL     1       5.057  -0.534  -1.025  0.00  0.00    -0.034 A 
ATOM     47  C   UNL     1       4.871  -1.472  -0.011  0.00  0.00    -0.059 A 
ATOM     48  C   UNL     1       3.964  -1.226   1.017  0.00  0.00    -0.054 A 
ATOM     49  C   UNL     1       3.232  -0.031   1.042  0.00  0.00    -0.016 A 
ATOM     50  C   UNL     1       2.325   0.211   2.086  0.00  0.00    -0.054 A 
ATOM     51  C   UNL     1       1.595   1.398   2.121  0.00  0.00    -0.061 A 
ATOM     52  C   UNL     1       1.749   2.345   1.111  0.00  0.00    -0.061 A 
ATOM     53  C   UNL     1       2.650   2.122   0.067  0.00  0.00    -0.052 A 
ATOM     54  C   UNL     1       3.410   0.934   0.013  0.00  0.00    +0.009 A 
ATOM     55  H   UNL     1       5.760  -0.761  -1.816  0.00  0.00    +0.064 HD
ATOM     56  H   UNL     1       5.431  -2.398  -0.024  0.00  0.00    +0.062 HD
ATOM     57  H   UNL     1       3.835  -1.970   1.795  0.00  0.00    +0.062 HD
ATOM     58  H   UNL     1       2.182  -0.517   2.876  0.00  0.00    +0.062 HD
ATOM     59  H   UNL     1       0.903   1.584   2.932  0.00  0.00    +0.062 HD
ATOM     60  H   UNL     1       1.171   3.260   1.139  0.00  0.00    +0.062 HD
ATOM     61  H   UNL     1       2.740   2.891  -0.685  0.00  0.00    +0.062 HD
ENDBRANCH  42  45
ENDBRANCH  40  42
ENDBRANCH  34  40
ENDBRANCH   1  30
BRANCH   1  62
ATOM     62  C   UNL     1      -2.742  -0.446  -2.709  0.00  0.00    -0.030 C 
ATOM     63  C   UNL     1      -2.954  -1.943  -2.857  0.00  0.00    -0.049 C 
ATOM     64  C   UNL     1      -2.777  -1.069  -4.096  0.00  0.00    -0.049 C 
ATOM     65  H   UNL     1      -3.672   0.096  -2.428  0.00  0.00    +0.031 HD
ATOM     66  H   UNL     1      -2.112  -2.603  -2.599  0.00  0.00    +0.027 HD
ATOM     67  H   UNL     1      -4.002  -2.268  -2.687  0.00  0.00    +0.027 HD
ATOM     68  H   UNL     1      -1.821  -1.199  -4.633  0.00  0.00    +0.027 HD
ATOM     69  H   UNL     1      -3.722  -0.890  -4.651  0.00  0.00    +0.027 HD
ENDBRANCH   1  62
TORSDOF 7
