REMARK  Name = 
REMARK  15 active torsions:
REMARK  status: ('A' for Active; 'I' for Inactive)
REMARK    1  A    between atoms: C_1  and  C_2
REMARK    2  A    between atoms: C_2  and  C_3
REMARK    3  A    between atoms: C_3  and  C_4
REMARK    4  A    between atoms: C_4  and  C_5
REMARK    5  A    between atoms: C_5  and  C_6
REMARK    6  A    between atoms: C_6  and  C_7
REMARK    7  A    between atoms: C_14  and  O_15
REMARK    8  A    between atoms: C_16  and  C_17
REMARK    9  A    between atoms: C_17  and  C_18
REMARK   10  A    between atoms: C_17  and  C_20
REMARK   11  A    between atoms: C_18  and  C_19
REMARK   12  A    between atoms: C_24  and  N_25
REMARK   13  A    between atoms: N_25  and  S_26
REMARK   14  A    between atoms: S_26  and  C_29
REMARK   15  A    between atoms: C_32  and  C_33
REMARK                            x       y       z     vdW  Elec       q    Type
REMARK                         _______ _______ _______ _____ _____    ______ ____
ROOT
ATOM      1  C   UNL     1      -3.636   0.002  -0.354  0.00  0.00    +0.260 C 
ATOM      2  O   UNL     1      -3.233  -0.858   0.718  0.00  0.00    -0.421 OA
ATOM      3  C   UNL     1      -2.173  -1.769   0.623  0.00  0.00    +0.293 C 
ATOM      4  C   UNL     1      -1.270  -1.670  -0.374  0.00  0.00    +0.123 C 
ATOM      5  C   UNL     1      -1.409  -0.511  -1.284  0.00  0.00    +0.346 C 
ATOM      6  O   UNL     1      -0.520  -0.244  -2.136  0.00  0.00    -0.245 OA
ATOM      7  O   UNL     1      -2.511   0.335  -1.167  0.00  0.00    -0.419 OA
ENDROOT
BRANCH   1   8
ATOM      8  C   UNL     1      -4.226   1.309   0.229  0.00  0.00    +0.029 C 
ATOM      9  H   UNL     1      -4.454   2.016  -0.599  0.00  0.00    +0.034 HD
ATOM     10  H   UNL     1      -5.183   1.092   0.744  0.00  0.00    +0.034 HD
BRANCH   8  11
ATOM     11  C   UNL     1      -3.316   2.002   1.264  0.00  0.00    -0.021 C 
ATOM     12  H   UNL     1      -3.854   2.886   1.670  0.00  0.00    +0.032 HD
ATOM     13  H   UNL     1      -3.143   1.320   2.125  0.00  0.00    +0.032 HD
BRANCH  11  14
ATOM     14  C   UNL     1      -2.006   2.470   0.682  0.00  0.00    -0.047 A 
ATOM     15  C   UNL     1      -1.979   3.538  -0.231  0.00  0.00    -0.059 A 
ATOM     16  C   UNL     1      -0.771   3.947  -0.802  0.00  0.00    -0.062 A 
ATOM     17  C   UNL     1       0.419   3.295  -0.466  0.00  0.00    -0.062 A 
ATOM     18  C   UNL     1       0.404   2.238   0.448  0.00  0.00    -0.062 A 
ATOM     19  C   UNL     1      -0.802   1.828   1.024  0.00  0.00    -0.059 A 
ATOM     20  H   UNL     1      -2.895   4.047  -0.505  0.00  0.00    +0.062 HD
ATOM     21  H   UNL     1      -0.756   4.766  -1.509  0.00  0.00    +0.062 HD
ATOM     22  H   UNL     1       1.349   3.610  -0.915  0.00  0.00    +0.062 HD
ATOM     23  H   UNL     1       1.327   1.734   0.705  0.00  0.00    +0.062 HD
ATOM     24  H   UNL     1      -0.800   1.000   1.722  0.00  0.00    +0.062 HD
ENDBRANCH  11  14
ENDBRANCH   8  11
ENDBRANCH   1   8
BRANCH   1  25
ATOM     25  C   UNL     1      -4.662  -0.733  -1.251  0.00  0.00    +0.025 C 
ATOM     26  H   UNL     1      -5.063  -0.024  -2.009  0.00  0.00    +0.034 HD
ATOM     27  H   UNL     1      -4.126  -1.536  -1.803  0.00  0.00    +0.034 HD
BRANCH  25  28
ATOM     28  C   UNL     1      -5.829  -1.374  -0.479  0.00  0.00    -0.049 C 
ATOM     29  H   UNL     1      -6.452  -0.593   0.002  0.00  0.00    +0.027 HD
ATOM     30  H   UNL     1      -5.440  -2.053   0.310  0.00  0.00    +0.027 HD
BRANCH  28  31
ATOM     31  C   UNL     1      -6.722  -2.184  -1.415  0.00  0.00    -0.065 C 
ATOM     32  H   UNL     1      -7.561  -2.627  -0.837  0.00  0.00    +0.023 HD
ATOM     33  H   UNL     1      -6.144  -3.006  -1.886  0.00  0.00    +0.023 HD
ATOM     34  H   UNL     1      -7.143  -1.530  -2.208  0.00  0.00    +0.023 HD
ENDBRANCH  28  31
ENDBRANCH  25  28
ENDBRANCH   1  25
BRANCH   4  35
ATOM     35  C   UNL     1      -0.036  -2.568  -0.514  0.00  0.00    +0.023 C 
ATOM     36  H   UNL     1       0.178  -2.563  -1.607  0.00  0.00    +0.040 HD
BRANCH  35  37
ATOM     37  C   UNL     1       1.184  -1.958   0.164  0.00  0.00    -0.038 A 
ATOM     38  C   UNL     1       1.109  -1.412   1.459  0.00  0.00    -0.058 A 
ATOM     39  C   UNL     1       2.241  -0.866   2.063  0.00  0.00    -0.060 A 
ATOM     40  C   UNL     1       3.463  -0.860   1.391  0.00  0.00    -0.039 A 
ATOM     41  C   UNL     1       3.566  -1.405   0.100  0.00  0.00    +0.048 A 
ATOM     42  C   UNL     1       2.426  -1.967  -0.497  0.00  0.00    -0.036 A 
ATOM     43  H   UNL     1       0.180  -1.409   2.009  0.00  0.00    +0.062 HD
ATOM     44  H   UNL     1       2.172  -0.448   3.059  0.00  0.00    +0.062 HD
ATOM     45  H   UNL     1       4.325  -0.444   1.893  0.00  0.00    +0.064 HD
ATOM     46  H   UNL     1       2.506  -2.398  -1.487  0.00  0.00    +0.064 HD
BRANCH  41  47
ATOM     47  N   UNL     1       4.811  -1.411  -0.618  0.00  0.00    -0.216 N 
ATOM     48  H   UNL     1       4.900  -1.998  -1.477  0.00  0.00    +0.174 HD
BRANCH  47  49
ATOM     49  S   UNL     1       6.098  -0.293  -0.292  0.00  0.00    +0.072 S 
ATOM     50  O   UNL     1       6.790  -0.684   0.984  0.00  0.00    -0.150 OA
ATOM     51  O   UNL     1       7.096  -0.341  -1.415  0.00  0.00    -0.150 OA
BRANCH  49  52
ATOM     52  C   UNL     1       5.444   1.338  -0.186  0.00  0.00    +0.109 A 
ATOM     53  C   UNL     1       4.761   1.879  -1.283  0.00  0.00    -0.034 A 
ATOM     54  C   UNL     1       4.210   3.161  -1.206  0.00  0.00    -0.042 A 
ATOM     55  C   UNL     1       4.328   3.907  -0.026  0.00  0.00    +0.052 A 
ATOM     56  C   UNL     1       5.009   3.367   1.073  0.00  0.00    -0.042 A 
ATOM     57  C   UNL     1       5.567   2.088   0.992  0.00  0.00    -0.034 A 
ATOM     58  H   UNL     1       4.652   1.306  -2.196  0.00  0.00    +0.064 HD
ATOM     59  H   UNL     1       3.686   3.568  -2.063  0.00  0.00    +0.063 HD
ATOM     60  H   UNL     1       5.105   3.934   1.991  0.00  0.00    +0.063 HD
ATOM     61  H   UNL     1       6.085   1.682   1.851  0.00  0.00    +0.064 HD
BRANCH  55  62
ATOM     62  C   UNL     1       3.746   5.220   0.059  0.00  0.00    +0.099 C 
ATOM     63  N   UNL     1       3.277   6.276   0.127  0.00  0.00    -0.191 NA
ENDBRANCH  55  62
ENDBRANCH  49  52
ENDBRANCH  47  49
ENDBRANCH  41  47
ENDBRANCH  35  37
BRANCH  35  64
ATOM     64  C   UNL     1      -0.256  -4.081  -0.206  0.00  0.00    -0.045 C 
ATOM     65  H   UNL     1       0.206  -4.680  -1.023  0.00  0.00    +0.027 HD
ATOM     66  H   UNL     1      -1.338  -4.331  -0.235  0.00  0.00    +0.027 HD
BRANCH  64  67
ATOM     67  C   UNL     1       0.355  -4.591   1.105  0.00  0.00    -0.064 C 
ATOM     68  H   UNL     1       0.010  -4.004   1.978  0.00  0.00    +0.023 HD
ATOM     69  H   UNL     1       1.464  -4.546   1.056  0.00  0.00    +0.023 HD
ATOM     70  H   UNL     1       0.062  -5.651   1.260  0.00  0.00    +0.023 HD
ENDBRANCH  64  67
ENDBRANCH  35  64
ENDBRANCH   4  35
BRANCH   3  71
ATOM     71  O   UNL     1      -2.064  -2.745   1.605  0.00  0.00    -0.480 OA
ATOM     72  H   UNL     1      -2.741  -2.799   2.356  0.00  0.00    +0.295 HD
ENDBRANCH   3  71
TORSDOF 15
