REMARK  Name = 
REMARK  7 active torsions:
REMARK  status: ('A' for Active; 'I' for Inactive)
REMARK    1  A    between atoms: O_1  and  C_2
REMARK    2  A    between atoms: C_14  and  C_15
REMARK    3  A    between atoms: C_15  and  C_16
REMARK    4  A    between atoms: C_15  and  C_19
REMARK    5  A    between atoms: C_23  and  N_24
REMARK    6  A    between atoms: N_24  and  S_25
REMARK    7  A    between atoms: S_25  and  C_28
REMARK                            x       y       z     vdW  Elec       q    Type
REMARK                         _______ _______ _______ _____ _____    ______ ____
ROOT
ATOM      1  C   UNL     1      -1.534   1.618  -2.195  0.00  0.00    +0.022 C 
ATOM      2  H   UNL     1      -1.545   2.717  -2.293  0.00  0.00    +0.040 HD
ENDROOT
BRANCH   1  15
ATOM      3  C   UNL     1      -3.869   1.994  -1.139  0.00  0.00    +0.292 A 
ATOM      4  O   UNL     1      -4.888   1.540  -0.420  0.00  0.00    -0.429 OA
ATOM      5  C   UNL     1      -5.026   0.277  -0.037  0.00  0.00    +0.116 A 
ATOM      6  C   UNL     1      -6.198  -0.047   0.851  0.00  0.00    +0.006 C 
ATOM      7  C   UNL     1      -5.863   0.149   2.336  0.00  0.00    -0.046 C 
ATOM      8  C   UNL     1      -4.558  -0.525   2.800  0.00  0.00    -0.053 C 
ATOM      9  C   UNL     1      -4.513  -2.043   2.533  0.00  0.00    -0.053 C 
ATOM     10  C   UNL     1      -3.589  -2.433   1.365  0.00  0.00    -0.049 C 
ATOM     11  C   UNL     1      -4.183  -2.149  -0.024  0.00  0.00    -0.021 C 
ATOM     12  C   UNL     1      -4.065  -0.685  -0.418  0.00  0.00    +0.038 A 
ATOM     13  C   UNL     1      -2.943  -0.239  -1.141  0.00  0.00    +0.196 A 
ATOM     14  O   UNL     1      -2.052  -1.067  -1.475  0.00  0.00    -0.287 OA
ATOM     15  C   UNL     1      -2.811   1.122  -1.501  0.00  0.00    +0.087 A 
ATOM     16  H   UNL     1      -6.599  -1.063   0.675  0.00  0.00    +0.034 HD
ATOM     17  H   UNL     1      -7.034   0.640   0.593  0.00  0.00    +0.034 HD
ATOM     18  H   UNL     1      -5.782   1.239   2.542  0.00  0.00    +0.027 HD
ATOM     19  H   UNL     1      -6.709  -0.236   2.946  0.00  0.00    +0.027 HD
ATOM     20  H   UNL     1      -3.681  -0.008   2.352  0.00  0.00    +0.027 HD
ATOM     21  H   UNL     1      -4.477  -0.359   3.897  0.00  0.00    +0.027 HD
ATOM     22  H   UNL     1      -5.531  -2.463   2.381  0.00  0.00    +0.027 HD
ATOM     23  H   UNL     1      -4.111  -2.537   3.445  0.00  0.00    +0.027 HD
ATOM     24  H   UNL     1      -3.410  -3.528   1.434  0.00  0.00    +0.027 HD
ATOM     25  H   UNL     1      -2.596  -1.943   1.470  0.00  0.00    +0.027 HD
ATOM     26  H   UNL     1      -3.638  -2.775  -0.762  0.00  0.00    +0.032 HD
ATOM     27  H   UNL     1      -5.225  -2.517  -0.090  0.00  0.00    +0.032 HD
BRANCH   3  28
ATOM     28  O   UNL     1      -3.912   3.343  -1.501  0.00  0.00    -0.480 OA
ATOM     29  H   UNL     1      -3.312   3.781  -2.184  0.00  0.00    +0.295 HD
ENDBRANCH   3  28
ENDBRANCH   1  15
BRANCH   1  30
ATOM     30  C   UNL     1      -0.325   1.356  -1.304  0.00  0.00    -0.038 A 
ATOM     31  C   UNL     1      -0.104   2.199  -0.200  0.00  0.00    -0.058 A 
ATOM     32  C   UNL     1       0.969   1.974   0.662  0.00  0.00    -0.060 A 
ATOM     33  C   UNL     1       1.830   0.898   0.449  0.00  0.00    -0.039 A 
ATOM     34  C   UNL     1       1.620   0.024  -0.633  0.00  0.00    +0.048 A 
ATOM     35  C   UNL     1       0.544   0.263  -1.503  0.00  0.00    -0.036 A 
ATOM     36  H   UNL     1      -0.767   3.034  -0.008  0.00  0.00    +0.062 HD
ATOM     37  H   UNL     1       1.133   2.638   1.502  0.00  0.00    +0.062 HD
ATOM     38  H   UNL     1       2.658   0.761   1.129  0.00  0.00    +0.064 HD
ATOM     39  H   UNL     1       0.381  -0.421  -2.325  0.00  0.00    +0.064 HD
BRANCH  34  40
ATOM     40  N   UNL     1       2.486  -1.099  -0.883  0.00  0.00    -0.216 N 
ATOM     41  H   UNL     1       2.355  -1.655  -1.757  0.00  0.00    +0.174 HD
BRANCH  40  42
ATOM     42  S   UNL     1       3.690  -1.667   0.232  0.00  0.00    +0.073 S 
ATOM     43  O   UNL     1       4.149  -3.026  -0.214  0.00  0.00    -0.150 OA
ATOM     44  O   UNL     1       3.068  -1.782   1.596  0.00  0.00    -0.150 OA
BRANCH  42  45
ATOM     45  C   UNL     1       5.090  -0.576   0.278  0.00  0.00    +0.116 A 
ATOM     46  C   UNL     1       5.139   0.488  -0.637  0.00  0.00    -0.034 A 
ATOM     47  C   UNL     1       6.200   1.392  -0.629  0.00  0.00    -0.059 A 
ATOM     48  C   UNL     1       7.239   1.248   0.287  0.00  0.00    -0.054 A 
ATOM     49  C   UNL     1       7.231   0.186   1.200  0.00  0.00    -0.016 A 
ATOM     50  C   UNL     1       8.290   0.042   2.111  0.00  0.00    -0.054 A 
ATOM     51  C   UNL     1       8.300  -1.020   3.016  0.00  0.00    -0.061 A 
ATOM     52  C   UNL     1       7.259  -1.946   3.018  0.00  0.00    -0.061 A 
ATOM     53  C   UNL     1       6.197  -1.817   2.121  0.00  0.00    -0.052 A 
ATOM     54  C   UNL     1       6.157  -0.746   1.201  0.00  0.00    +0.009 A 
ATOM     55  H   UNL     1       4.353   0.628  -1.366  0.00  0.00    +0.064 HD
ATOM     56  H   UNL     1       6.217   2.210  -1.338  0.00  0.00    +0.062 HD
ATOM     57  H   UNL     1       8.052   1.964   0.276  0.00  0.00    +0.062 HD
ATOM     58  H   UNL     1       9.112   0.748   2.120  0.00  0.00    +0.062 HD
ATOM     59  H   UNL     1       9.120  -1.127   3.714  0.00  0.00    +0.062 HD
ATOM     60  H   UNL     1       7.276  -2.772   3.718  0.00  0.00    +0.062 HD
ATOM     61  H   UNL     1       5.422  -2.569   2.154  0.00  0.00    +0.062 HD
ENDBRANCH  42  45
ENDBRANCH  40  42
ENDBRANCH  34  40
ENDBRANCH   1  30
BRANCH   1  62
ATOM     62  C   UNL     1      -1.338   1.103  -3.651  0.00  0.00    -0.030 C 
ATOM     63  C   UNL     1      -2.433   0.308  -4.364  0.00  0.00    -0.049 C 
ATOM     64  C   UNL     1      -2.264   1.784  -4.657  0.00  0.00    -0.049 C 
ATOM     65  H   UNL     1      -0.308   1.036  -4.065  0.00  0.00    +0.031 HD
ATOM     66  H   UNL     1      -2.069  -0.347  -5.184  0.00  0.00    +0.027 HD
ATOM     67  H   UNL     1      -3.379   0.090  -3.828  0.00  0.00    +0.027 HD
ATOM     68  H   UNL     1      -3.085   2.407  -4.244  0.00  0.00    +0.027 HD
ATOM     69  H   UNL     1      -1.811   1.989  -5.651  0.00  0.00    +0.027 HD
ENDBRANCH   1  62
TORSDOF 7
