REMARK  Name = 
REMARK  7 active torsions:
REMARK  status: ('A' for Active; 'I' for Inactive)
REMARK    1  A    between atoms: O_1  and  C_2
REMARK    2  A    between atoms: C_14  and  C_15
REMARK    3  A    between atoms: C_15  and  C_16
REMARK    4  A    between atoms: C_15  and  C_19
REMARK    5  A    between atoms: C_23  and  N_24
REMARK    6  A    between atoms: N_24  and  S_25
REMARK    7  A    between atoms: S_25  and  C_28
REMARK                            x       y       z     vdW  Elec       q    Type
REMARK                         _______ _______ _______ _____ _____    ______ ____
ROOT
ATOM      1  C   UNL     1      -1.916  -1.416  -1.674  0.00  0.00    +0.022 C 
ATOM      2  H   UNL     1      -2.071  -1.094  -2.728  0.00  0.00    +0.040 HD
ENDROOT
BRANCH   1  15
ATOM      3  C   UNL     1      -3.297   0.681  -1.242  0.00  0.00    +0.292 A 
ATOM      4  O   UNL     1      -3.838   1.574  -0.422  0.00  0.00    -0.429 OA
ATOM      5  C   UNL     1      -3.696   1.544   0.898  0.00  0.00    +0.116 A 
ATOM      6  C   UNL     1      -4.393   2.626   1.687  0.00  0.00    +0.006 C 
ATOM      7  C   UNL     1      -5.777   2.189   2.193  0.00  0.00    -0.046 C 
ATOM      8  C   UNL     1      -5.739   1.298   3.448  0.00  0.00    -0.053 C 
ATOM      9  C   UNL     1      -5.338  -0.163   3.152  0.00  0.00    -0.053 C 
ATOM     10  C   UNL     1      -3.908  -0.515   3.598  0.00  0.00    -0.049 C 
ATOM     11  C   UNL     1      -2.813   0.384   3.006  0.00  0.00    -0.021 C 
ATOM     12  C   UNL     1      -2.936   0.515   1.500  0.00  0.00    +0.038 A 
ATOM     13  C   UNL     1      -2.365  -0.462   0.663  0.00  0.00    +0.196 A 
ATOM     14  O   UNL     1      -1.714  -1.417   1.169  0.00  0.00    -0.287 OA
ATOM     15  C   UNL     1      -2.524  -0.380  -0.735  0.00  0.00    +0.087 A 
ATOM     16  H   UNL     1      -3.767   3.021   2.512  0.00  0.00    +0.034 HD
ATOM     17  H   UNL     1      -4.545   3.492   1.006  0.00  0.00    +0.034 HD
ATOM     18  H   UNL     1      -6.340   3.111   2.458  0.00  0.00    +0.027 HD
ATOM     19  H   UNL     1      -6.349   1.694   1.378  0.00  0.00    +0.027 HD
ATOM     20  H   UNL     1      -5.092   1.751   4.229  0.00  0.00    +0.027 HD
ATOM     21  H   UNL     1      -6.768   1.287   3.871  0.00  0.00    +0.027 HD
ATOM     22  H   UNL     1      -5.473  -0.410   2.076  0.00  0.00    +0.027 HD
ATOM     23  H   UNL     1      -6.029  -0.836   3.705  0.00  0.00    +0.027 HD
ATOM     24  H   UNL     1      -3.702  -1.569   3.309  0.00  0.00    +0.027 HD
ATOM     25  H   UNL     1      -3.850  -0.464   4.707  0.00  0.00    +0.027 HD
ATOM     26  H   UNL     1      -2.816   1.367   3.511  0.00  0.00    +0.032 HD
ATOM     27  H   UNL     1      -1.824  -0.052   3.266  0.00  0.00    +0.032 HD
BRANCH   3  28
ATOM     28  O   UNL     1      -3.514   0.812  -2.611  0.00  0.00    -0.480 OA
ATOM     29  H   UNL     1      -4.072   1.574  -2.977  0.00  0.00    +0.295 HD
ENDBRANCH   3  28
ENDBRANCH   1  15
BRANCH   1  30
ATOM     30  C   UNL     1      -0.404  -1.479  -1.501  0.00  0.00    -0.038 A 
ATOM     31  C   UNL     1       0.248  -2.549  -0.857  0.00  0.00    -0.058 A 
ATOM     32  C   UNL     1       1.634  -2.538  -0.697  0.00  0.00    -0.060 A 
ATOM     33  C   UNL     1       2.391  -1.465  -1.168  0.00  0.00    -0.039 A 
ATOM     34  C   UNL     1       1.765  -0.384  -1.813  0.00  0.00    +0.048 A 
ATOM     35  C   UNL     1       0.370  -0.401  -1.968  0.00  0.00    -0.036 A 
ATOM     36  H   UNL     1      -0.303  -3.393  -0.466  0.00  0.00    +0.062 HD
ATOM     37  H   UNL     1       2.125  -3.364  -0.196  0.00  0.00    +0.062 HD
ATOM     38  H   UNL     1       3.459  -1.485  -1.010  0.00  0.00    +0.064 HD
ATOM     39  H   UNL     1      -0.120   0.436  -2.453  0.00  0.00    +0.064 HD
BRANCH  34  40
ATOM     40  N   UNL     1       2.508   0.752  -2.293  0.00  0.00    -0.216 N 
ATOM     41  H   UNL     1       1.989   1.561  -2.701  0.00  0.00    +0.174 HD
BRANCH  40  42
ATOM     42  S   UNL     1       4.242   0.858  -2.290  0.00  0.00    +0.073 S 
ATOM     43  O   UNL     1       4.647   2.060  -3.095  0.00  0.00    -0.150 OA
ATOM     44  O   UNL     1       4.800  -0.378  -2.940  0.00  0.00    -0.150 OA
BRANCH  42  45
ATOM     45  C   UNL     1       4.873   1.034  -0.640  0.00  0.00    +0.116 A 
ATOM     46  C   UNL     1       3.959   1.219   0.410  0.00  0.00    -0.034 A 
ATOM     47  C   UNL     1       4.396   1.332   1.728  0.00  0.00    -0.059 A 
ATOM     48  C   UNL     1       5.754   1.272   2.026  0.00  0.00    -0.054 A 
ATOM     49  C   UNL     1       6.695   1.111   1.001  0.00  0.00    -0.016 A 
ATOM     50  C   UNL     1       8.064   1.067   1.310  0.00  0.00    -0.054 A 
ATOM     51  C   UNL     1       9.010   0.922   0.296  0.00  0.00    -0.061 A 
ATOM     52  C   UNL     1       8.601   0.825  -1.033  0.00  0.00    -0.061 A 
ATOM     53  C   UNL     1       7.243   0.864  -1.359  0.00  0.00    -0.052 A 
ATOM     54  C   UNL     1       6.264   0.998  -0.350  0.00  0.00    +0.009 A 
ATOM     55  H   UNL     1       2.897   1.277   0.216  0.00  0.00    +0.064 HD
ATOM     56  H   UNL     1       3.675   1.467   2.525  0.00  0.00    +0.062 HD
ATOM     57  H   UNL     1       6.071   1.360   3.059  0.00  0.00    +0.062 HD
ATOM     58  H   UNL     1       8.402   1.149   2.337  0.00  0.00    +0.062 HD
ATOM     59  H   UNL     1      10.064   0.891   0.540  0.00  0.00    +0.062 HD
ATOM     60  H   UNL     1       9.341   0.721  -1.817  0.00  0.00    +0.062 HD
ATOM     61  H   UNL     1       6.980   0.800  -2.404  0.00  0.00    +0.062 HD
ENDBRANCH  42  45
ENDBRANCH  40  42
ENDBRANCH  34  40
ENDBRANCH   1  30
BRANCH   1  62
ATOM     62  C   UNL     1      -2.629  -2.775  -1.482  0.00  0.00    -0.030 C 
ATOM     63  C   UNL     1      -2.580  -3.719  -2.675  0.00  0.00    -0.049 C 
ATOM     64  C   UNL     1      -3.870  -2.988  -2.339  0.00  0.00    -0.049 C 
ATOM     65  H   UNL     1      -2.675  -3.262  -0.485  0.00  0.00    +0.031 HD
ATOM     66  H   UNL     1      -2.062  -3.335  -3.580  0.00  0.00    +0.027 HD
ATOM     67  H   UNL     1      -2.586  -4.796  -2.406  0.00  0.00    +0.027 HD
ATOM     68  H   UNL     1      -4.127  -2.174  -3.050  0.00  0.00    +0.027 HD
ATOM     69  H   UNL     1      -4.644  -3.635  -1.875  0.00  0.00    +0.027 HD
ENDBRANCH   1  62
TORSDOF 7
