REMARK  Name = 
REMARK  15 active torsions:
REMARK  status: ('A' for Active; 'I' for Inactive)
REMARK    1  A    between atoms: C_1  and  O_2
REMARK    2  A    between atoms: O_2  and  C_3
REMARK    3  A    between atoms: C_6  and  S_7
REMARK    4  A    between atoms: S_7  and  N_10
REMARK    5  A    between atoms: N_10  and  C_11
REMARK    6  A    between atoms: N_10  and  O_31
REMARK    7  A    between atoms: C_11  and  C_12
REMARK    8  A    between atoms: C_12  and  O_13
REMARK    9  A    between atoms: C_12  and  C_14
REMARK   10  A    between atoms: C_14  and  C_15
REMARK   11  A    between atoms: C_14  and  N_22
REMARK   12  A    between atoms: C_15  and  C_16
REMARK   13  A    between atoms: C_23  and  O_25
REMARK   14  A    between atoms: O_25  and  C_26
REMARK   15  A    between atoms: O_31  and  C_32
REMARK                            x       y       z     vdW  Elec       q    Type
REMARK                         _______ _______ _______ _____ _____    ______ ____
ROOT
ATOM      1  C   UNL     1      -0.729   1.078   0.111  0.00  0.00    +0.075 C 
ATOM      2  H   UNL     1      -0.943   0.203  -0.532  0.00  0.00    +0.049 HD
ATOM      3  H   UNL     1      -0.241   0.695   1.032  0.00  0.00    +0.049 HD
ENDROOT
BRANCH   1   4
ATOM      4  C   UNL     1       0.254   2.045  -0.574  0.00  0.00    +0.091 C 
ATOM      5  H   UNL     1      -0.270   2.533  -1.428  0.00  0.00    +0.063 HD
BRANCH   4   6
ATOM      6  O   UNL     1       0.624   3.034   0.353  0.00  0.00    -0.389 OA
ATOM      7  H   UNL     1       0.980   3.801  -0.168  0.00  0.00    +0.210 HD
ENDBRANCH   4   6
BRANCH   4   8
ATOM      8  C   UNL     1       1.524   1.334  -1.115  0.00  0.00    +0.057 C 
ATOM      9  H   UNL     1       2.248   2.125  -1.416  0.00  0.00    +0.053 HD
BRANCH   8  10
ATOM     10  N   UNL     1       2.133   0.490  -0.079  0.00  0.00    -0.275 N 
ATOM     11  C   UNL     1       3.061   0.995   0.887  0.00  0.00    +0.401 C 
ATOM     12  O   UNL     1       3.494   2.177   0.801  0.00  0.00    -0.226 OA
ATOM     13  H   UNL     1       1.789  -0.489   0.043  0.00  0.00    +0.152 HD
BRANCH  11  14
ATOM     14  O   UNL     1       3.480   0.160   1.927  0.00  0.00    -0.445 OA
BRANCH  14  15
ATOM     15  C   UNL     1       4.351   0.594   2.972  0.00  0.00    +0.130 C 
ATOM     16  C   UNL     1       4.735  -0.552   3.855  0.00  0.00    +0.010 C 
ATOM     17  C   UNL     1       4.878   0.104   5.213  0.00  0.00    +0.051 C 
ATOM     18  O   UNL     1       4.121   1.293   5.243  0.00  0.00    -0.376 OA
ATOM     19  C   UNL     1       3.654   1.537   3.936  0.00  0.00    +0.085 C 
ATOM     20  H   UNL     1       5.268   1.068   2.551  0.00  0.00    +0.076 HD
ATOM     21  H   UNL     1       5.683  -1.030   3.525  0.00  0.00    +0.032 HD
ATOM     22  H   UNL     1       3.921  -1.311   3.889  0.00  0.00    +0.032 HD
ATOM     23  H   UNL     1       5.944   0.354   5.401  0.00  0.00    +0.056 HD
ATOM     24  H   UNL     1       4.529  -0.582   6.015  0.00  0.00    +0.056 HD
ATOM     25  H   UNL     1       3.857   2.593   3.658  0.00  0.00    +0.060 HD
ATOM     26  H   UNL     1       2.554   1.372   3.915  0.00  0.00    +0.060 HD
ENDBRANCH  14  15
ENDBRANCH  11  14
ENDBRANCH   8  10
BRANCH   8  27
ATOM     27  C   UNL     1       1.229   0.504  -2.383  0.00  0.00    -0.007 C 
ATOM     28  H   UNL     1       0.707   1.139  -3.131  0.00  0.00    +0.033 HD
ATOM     29  H   UNL     1       0.550  -0.343  -2.148  0.00  0.00    +0.033 HD
BRANCH  27  30
ATOM     30  C   UNL     1       2.502  -0.022  -2.998  0.00  0.00    -0.046 A 
ATOM     31  C   UNL     1       2.951  -1.321  -2.704  0.00  0.00    -0.059 A 
ATOM     32  C   UNL     1       4.149  -1.792  -3.249  0.00  0.00    -0.062 A 
ATOM     33  C   UNL     1       4.909  -0.970  -4.085  0.00  0.00    -0.062 A 
ATOM     34  C   UNL     1       4.474   0.326  -4.375  0.00  0.00    -0.062 A 
ATOM     35  C   UNL     1       3.276   0.801  -3.832  0.00  0.00    -0.059 A 
ATOM     36  H   UNL     1       2.376  -1.967  -2.052  0.00  0.00    +0.062 HD
ATOM     37  H   UNL     1       4.489  -2.794  -3.022  0.00  0.00    +0.062 HD
ATOM     38  H   UNL     1       5.837  -1.336  -4.506  0.00  0.00    +0.062 HD
ATOM     39  H   UNL     1       5.066   0.964  -5.019  0.00  0.00    +0.062 HD
ATOM     40  H   UNL     1       2.954   1.810  -4.057  0.00  0.00    +0.062 HD
ENDBRANCH  27  30
ENDBRANCH   8  27
ENDBRANCH   4   8
ENDBRANCH   1   4
BRANCH   1  41
ATOM     41  N   UNL     1      -1.967   1.787   0.482  0.00  0.00    -0.052 NA
BRANCH  41  42
ATOM     42  S   UNL     1      -2.844   1.110   1.839  0.00  0.00    +0.083 S 
ATOM     43  O   UNL     1      -4.187   1.778   1.944  0.00  0.00    -0.151 OA
ATOM     44  O   UNL     1      -2.082   1.406   3.099  0.00  0.00    -0.151 OA
BRANCH  42  48
ATOM     45  C   UNL     1      -3.398  -3.428   1.516  0.00  0.00    +0.120 A 
ATOM     46  C   UNL     1      -2.160  -2.887   1.913  0.00  0.00    -0.018 A 
ATOM     47  C   UNL     1      -1.997  -1.502   2.018  0.00  0.00    -0.032 A 
ATOM     48  C   UNL     1      -3.060  -0.639   1.719  0.00  0.00    +0.108 A 
ATOM     49  C   UNL     1      -4.298  -1.178   1.340  0.00  0.00    -0.032 A 
ATOM     50  C   UNL     1      -4.461  -2.562   1.234  0.00  0.00    -0.018 A 
ATOM     51  H   UNL     1      -1.319  -3.526   2.146  0.00  0.00    +0.065 HD
ATOM     52  H   UNL     1      -1.041  -1.107   2.335  0.00  0.00    +0.064 HD
ATOM     53  H   UNL     1      -5.134  -0.530   1.114  0.00  0.00    +0.064 HD
ATOM     54  H   UNL     1      -5.419  -2.965   0.931  0.00  0.00    +0.065 HD
BRANCH  45  55
ATOM     55  O   UNL     1      -3.611  -4.809   1.393  0.00  0.00    -0.495 OA
BRANCH  55  56
ATOM     56  C   UNL     1      -2.620  -5.800   1.645  0.00  0.00    +0.079 C 
ATOM     57  H   UNL     1      -3.059  -6.803   1.468  0.00  0.00    +0.066 HD
ATOM     58  H   UNL     1      -2.281  -5.741   2.700  0.00  0.00    +0.066 HD
ATOM     59  H   UNL     1      -1.759  -5.662   0.957  0.00  0.00    +0.066 HD
ENDBRANCH  55  56
ENDBRANCH  45  55
ENDBRANCH  42  48
ENDBRANCH  41  42
BRANCH  41  60
ATOM     60  O   UNL     1      -2.764   2.173  -0.573  0.00  0.00    -0.273 OA
BRANCH  60  61
ATOM     61  C   UNL     1      -3.336   1.062  -1.254  0.00  0.00    +0.082 C 
ATOM     62  C   UNL     1      -4.842   1.262  -1.367  0.00  0.00    -0.025 C 
ATOM     63  C   UNL     1      -5.071   2.071  -2.639  0.00  0.00    -0.051 C 
ATOM     64  C   UNL     1      -3.791   1.970  -3.462  0.00  0.00    -0.051 C 
ATOM     65  C   UNL     1      -2.856   1.043  -2.698  0.00  0.00    -0.025 C 
ATOM     66  H   UNL     1      -3.129   0.080  -0.786  0.00  0.00    +0.062 HD
ATOM     67  H   UNL     1      -5.260   1.783  -0.479  0.00  0.00    +0.029 HD
ATOM     68  H   UNL     1      -5.340   0.272  -1.465  0.00  0.00    +0.029 HD
ATOM     69  H   UNL     1      -5.274   3.134  -2.382  0.00  0.00    +0.027 HD
ATOM     70  H   UNL     1      -5.939   1.668  -3.205  0.00  0.00    +0.027 HD
ATOM     71  H   UNL     1      -3.324   2.975  -3.560  0.00  0.00    +0.027 HD
ATOM     72  H   UNL     1      -3.998   1.569  -4.479  0.00  0.00    +0.027 HD
ATOM     73  H   UNL     1      -2.948   0.011  -3.104  0.00  0.00    +0.029 HD
ATOM     74  H   UNL     1      -1.800   1.367  -2.795  0.00  0.00    +0.029 HD
ENDBRANCH  60  61
ENDBRANCH  41  60
ENDBRANCH   1  41
TORSDOF 15
