REMARK  Name = 
REMARK  21 active torsions:
REMARK  status: ('A' for Active; 'I' for Inactive)
REMARK    1  A    between atoms: C_1  and  C_2
REMARK    2  A    between atoms: C_2  and  C_3
REMARK    3  A    between atoms: C_2  and  C_4
REMARK    4  A    between atoms: C_4  and  C_5
REMARK    5  A    between atoms: C_4  and  C_6
REMARK    6  A    between atoms: C_9  and  C_11
REMARK    7  A    between atoms: C_11  and  O_12
REMARK    8  A    between atoms: C_11  and  C_13
REMARK    9  A    between atoms: C_13  and  O_14
REMARK   10  A    between atoms: C_13  and  C_15
REMARK   11  A    between atoms: C_15  and  O_16
REMARK   12  A    between atoms: C_15  and  C_17
REMARK   13  A    between atoms: C_17  and  O_18
REMARK   14  A    between atoms: C_17  and  C_31
REMARK   15  A    between atoms: O_18  and  C_19
REMARK   16  A    between atoms: C_22  and  C_23
REMARK   17  A    between atoms: C_34  and  C_36
REMARK   18  A    between atoms: C_36  and  C_37
REMARK   19  A    between atoms: C_36  and  C_38
REMARK   20  A    between atoms: C_38  and  C_39
REMARK   21  A    between atoms: C_38  and  C_40
REMARK                            x       y       z     vdW  Elec       q    Type
REMARK                         _______ _______ _______ _____ _____    ______ ____
ROOT
ATOM      1  C   UNL     1      -0.147   0.524  -0.199  0.00  0.00    +0.204 C 
ATOM      2  H   UNL     1       0.100   1.350   0.498  0.00  0.00    +0.086 HD
ENDROOT
BRANCH   1   3
ATOM      3  C   UNL     1      -0.090  -0.799   0.534  0.00  0.00    +0.263 C 
ATOM      4  O   UNL     1       0.683  -0.923   1.522  0.00  0.00    -0.271 OA
ATOM      5  N   UNL     1      -0.928  -1.892   0.124  0.00  0.00    -0.253 N 
ATOM      6  C   UNL     1      -1.311  -2.960   1.003  0.00  0.00    +0.222 C 
ATOM      7  O   UNL     1      -0.670  -3.169   2.070  0.00  0.00    -0.275 OA
ATOM      8  H   UNL     1      -1.422  -1.817  -0.793  0.00  0.00    +0.158 HD
BRANCH   6   9
ATOM      9  C   UNL     1      -2.545  -3.775   0.686  0.00  0.00    +0.035 C 
ATOM     10  H   UNL     1      -2.554  -3.924  -0.417  0.00  0.00    +0.039 HD
BRANCH   9  11
ATOM     11  C   UNL     1      -2.470  -5.180   1.311  0.00  0.00    -0.054 C 
ATOM     12  H   UNL     1      -3.337  -5.797   0.998  0.00  0.00    +0.024 HD
ATOM     13  H   UNL     1      -1.550  -5.696   0.961  0.00  0.00    +0.024 HD
ATOM     14  H   UNL     1      -2.439  -5.132   2.419  0.00  0.00    +0.024 HD
ENDBRANCH   9  11
BRANCH   9  15
ATOM     15  C   UNL     1      -3.832  -2.982   1.065  0.00  0.00    -0.036 C 
ATOM     16  H   UNL     1      -3.748  -1.975   0.603  0.00  0.00    +0.030 HD
BRANCH  15  17
ATOM     17  C   UNL     1      -5.099  -3.618   0.475  0.00  0.00    -0.062 C 
ATOM     18  H   UNL     1      -4.977  -3.785  -0.616  0.00  0.00    +0.023 HD
ATOM     19  H   UNL     1      -5.966  -2.938   0.622  0.00  0.00    +0.023 HD
ATOM     20  H   UNL     1      -5.330  -4.585   0.968  0.00  0.00    +0.023 HD
ENDBRANCH  15  17
BRANCH  15  21
ATOM     21  C   UNL     1      -3.999  -2.768   2.579  0.00  0.00    -0.062 C 
ATOM     22  H   UNL     1      -4.867  -2.103   2.772  0.00  0.00    +0.023 HD
ATOM     23  H   UNL     1      -3.099  -2.281   3.008  0.00  0.00    +0.023 HD
ATOM     24  H   UNL     1      -4.179  -3.731   3.102  0.00  0.00    +0.023 HD
ENDBRANCH  15  21
ENDBRANCH   9  15
ENDBRANCH   6   9
ENDBRANCH   1   3
BRANCH   1  25
ATOM     25  C   UNL     1       0.832   0.560  -1.395  0.00  0.00    +0.129 C 
ATOM     26  H   UNL     1       0.722   1.566  -1.867  0.00  0.00    +0.066 HD
BRANCH  25  27
ATOM     27  O   UNL     1       0.448  -0.431  -2.318  0.00  0.00    -0.385 OA
ATOM     28  H   UNL     1       0.674  -0.095  -3.224  0.00  0.00    +0.210 HD
ENDBRANCH  25  27
BRANCH  25  29
ATOM     29  C   UNL     1       2.334   0.365  -1.021  0.00  0.00    +0.119 C 
ATOM     30  H   UNL     1       2.440  -0.575  -0.439  0.00  0.00    +0.065 HD
BRANCH  29  31
ATOM     31  O   UNL     1       3.087   0.197  -2.200  0.00  0.00    -0.386 OA
ATOM     32  H   UNL     1       3.010   1.036  -2.726  0.00  0.00    +0.210 HD
ENDBRANCH  29  31
BRANCH  29  33
ATOM     33  C   UNL     1       2.918   1.530  -0.176  0.00  0.00    +0.159 C 
ATOM     34  H   UNL     1       2.619   2.497  -0.645  0.00  0.00    +0.072 HD
BRANCH  33  38
ATOM     35  C   UNL     1       6.649   2.198  -1.095  0.00  0.00    +0.222 C 
ATOM     36  O   UNL     1       7.303   1.495  -0.276  0.00  0.00    -0.275 OA
ATOM     37  N   UNL     1       5.214   2.248  -1.027  0.00  0.00    -0.254 N 
ATOM     38  C   UNL     1       4.425   1.449  -0.130  0.00  0.00    +0.250 C 
ATOM     39  O   UNL     1       4.976   0.638   0.663  0.00  0.00    -0.272 OA
ATOM     40  H   UNL     1       4.712   2.873  -1.697  0.00  0.00    +0.158 HD
BRANCH  35  41
ATOM     41  C   UNL     1       7.376   2.960  -2.182  0.00  0.00    +0.035 C 
ATOM     42  H   UNL     1       6.729   3.811  -2.492  0.00  0.00    +0.039 HD
BRANCH  41  43
ATOM     43  C   UNL     1       8.663   3.605  -1.642  0.00  0.00    -0.054 C 
ATOM     44  H   UNL     1       8.413   4.312  -0.822  0.00  0.00    +0.024 HD
ATOM     45  H   UNL     1       9.365   2.845  -1.241  0.00  0.00    +0.024 HD
ATOM     46  H   UNL     1       9.174   4.176  -2.445  0.00  0.00    +0.024 HD
ENDBRANCH  41  43
BRANCH  41  47
ATOM     47  C   UNL     1       7.638   2.092  -3.450  0.00  0.00    -0.036 C 
ATOM     48  H   UNL     1       8.213   2.714  -4.173  0.00  0.00    +0.030 HD
BRANCH  47  49
ATOM     49  C   UNL     1       8.469   0.828  -3.171  0.00  0.00    -0.062 C 
ATOM     50  H   UNL     1       8.666   0.289  -4.122  0.00  0.00    +0.023 HD
ATOM     51  H   UNL     1       7.931   0.138  -2.487  0.00  0.00    +0.023 HD
ATOM     52  H   UNL     1       9.452   1.089  -2.729  0.00  0.00    +0.023 HD
ENDBRANCH  47  49
BRANCH  47  53
ATOM     53  C   UNL     1       6.322   1.712  -4.147  0.00  0.00    -0.062 C 
ATOM     54  H   UNL     1       5.722   2.620  -4.365  0.00  0.00    +0.023 HD
ATOM     55  H   UNL     1       5.721   1.026  -3.512  0.00  0.00    +0.023 HD
ATOM     56  H   UNL     1       6.535   1.202  -5.111  0.00  0.00    +0.023 HD
ENDBRANCH  47  53
ENDBRANCH  41  47
ENDBRANCH  35  41
ENDBRANCH  33  38
BRANCH  33  57
ATOM     57  O   UNL     1       2.423   1.472   1.137  0.00  0.00    -0.380 OA
ATOM     58  H   UNL     1       2.577   2.366   1.542  0.00  0.00    +0.211 HD
ENDBRANCH  33  57
ENDBRANCH  29  33
ENDBRANCH  25  29
ENDBRANCH   1  25
BRANCH   1  59
ATOM     59  O   UNL     1      -1.471   0.760  -0.691  0.00  0.00    -0.477 OA
BRANCH  59  60
ATOM     60  C   UNL     1      -2.635   0.812   0.094  0.00  0.00    +0.122 A 
ATOM     61  C   UNL     1      -2.600   0.882   1.498  0.00  0.00    -0.019 A 
ATOM     62  C   UNL     1      -3.787   0.849   2.235  0.00  0.00    -0.049 A 
ATOM     63  C   UNL     1      -5.029   0.746   1.587  0.00  0.00    +0.001 A 
ATOM     64  C   UNL     1      -5.061   0.727   0.180  0.00  0.00    -0.049 A 
ATOM     65  C   UNL     1      -3.873   0.765  -0.555  0.00  0.00    -0.019 A 
ATOM     66  H   UNL     1      -1.662   0.945   2.032  0.00  0.00    +0.065 HD
ATOM     67  H   UNL     1      -3.730   0.874   3.317  0.00  0.00    +0.063 HD
ATOM     68  H   UNL     1      -6.000   0.690  -0.356  0.00  0.00    +0.063 HD
ATOM     69  H   UNL     1      -3.913   0.730  -1.636  0.00  0.00    +0.065 HD
BRANCH  63  70
ATOM     70  C   UNL     1      -6.276   0.660   2.388  0.00  0.00    +0.071 A 
ATOM     71  C   UNL     1      -7.398  -0.055   1.930  0.00  0.00    -0.036 A 
ATOM     72  C   UNL     1      -8.542  -0.123   2.727  0.00  0.00    -0.058 A 
ATOM     73  C   UNL     1      -8.564   0.512   3.969  0.00  0.00    -0.044 A 
ATOM     74  C   UNL     1      -7.432   1.204   4.401  0.00  0.00    +0.028 A 
ATOM     75  N   UNL     1      -6.326   1.259   3.612  0.00  0.00    -0.255 NA
ATOM     76  H   UNL     1      -7.386  -0.577   0.983  0.00  0.00    +0.064 HD
ATOM     77  H   UNL     1      -9.410  -0.672   2.384  0.00  0.00    +0.062 HD
ATOM     78  H   UNL     1      -9.448   0.464   4.593  0.00  0.00    +0.063 HD
ATOM     79  H   UNL     1      -7.432   1.697   5.364  0.00  0.00    +0.083 HD
ENDBRANCH  63  70
ENDBRANCH  59  60
ENDBRANCH   1  59
TORSDOF 21
