REMARK  Name = 
REMARK  7 active torsions:
REMARK  status: ('A' for Active; 'I' for Inactive)
REMARK    1  A    between atoms: O_1  and  C_2
REMARK    2  A    between atoms: C_14  and  C_15
REMARK    3  A    between atoms: C_15  and  C_16
REMARK    4  A    between atoms: C_15  and  C_19
REMARK    5  A    between atoms: C_23  and  N_24
REMARK    6  A    between atoms: N_24  and  S_25
REMARK    7  A    between atoms: S_25  and  C_28
REMARK                            x       y       z     vdW  Elec       q    Type
REMARK                         _______ _______ _______ _____ _____    ______ ____
ROOT
ATOM      1  C   UNL     1      -0.411   1.207   0.650  0.00  0.00    +0.022 C 
ATOM      2  H   UNL     1      -0.015   2.227   0.800  0.00  0.00    +0.040 HD
ENDROOT
BRANCH   1  15
ATOM      3  C   UNL     1      -2.666   2.437   0.349  0.00  0.00    +0.292 A 
ATOM      4  O   UNL     1      -3.929   2.436  -0.059  0.00  0.00    -0.429 OA
ATOM      5  C   UNL     1      -4.556   1.374  -0.548  0.00  0.00    +0.116 A 
ATOM      6  C   UNL     1      -6.000   1.556  -0.950  0.00  0.00    +0.006 C 
ATOM      7  C   UNL     1      -6.977   1.179   0.174  0.00  0.00    -0.046 C 
ATOM      8  C   UNL     1      -7.208  -0.336   0.330  0.00  0.00    -0.053 C 
ATOM      9  C   UNL     1      -6.044  -1.064   1.034  0.00  0.00    -0.053 C 
ATOM     10  C   UNL     1      -5.175  -1.907   0.084  0.00  0.00    -0.049 C 
ATOM     11  C   UNL     1      -4.575  -1.127  -1.095  0.00  0.00    -0.021 C 
ATOM     12  C   UNL     1      -3.876   0.141  -0.644  0.00  0.00    +0.038 A 
ATOM     13  C   UNL     1      -2.538   0.090  -0.214  0.00  0.00    +0.196 A 
ATOM     14  O   UNL     1      -1.922  -1.011  -0.242  0.00  0.00    -0.287 OA
ATOM     15  C   UNL     1      -1.888   1.254   0.253  0.00  0.00    +0.087 A 
ATOM     16  H   UNL     1      -6.152   2.635  -1.175  0.00  0.00    +0.034 HD
ATOM     17  H   UNL     1      -6.248   1.032  -1.894  0.00  0.00    +0.034 HD
ATOM     18  H   UNL     1      -7.959   1.640  -0.071  0.00  0.00    +0.027 HD
ATOM     19  H   UNL     1      -6.651   1.626   1.139  0.00  0.00    +0.027 HD
ATOM     20  H   UNL     1      -7.447  -0.797  -0.652  0.00  0.00    +0.027 HD
ATOM     21  H   UNL     1      -8.117  -0.464   0.958  0.00  0.00    +0.027 HD
ATOM     22  H   UNL     1      -5.406  -0.354   1.604  0.00  0.00    +0.027 HD
ATOM     23  H   UNL     1      -6.471  -1.760   1.791  0.00  0.00    +0.027 HD
ATOM     24  H   UNL     1      -4.347  -2.357   0.674  0.00  0.00    +0.027 HD
ATOM     25  H   UNL     1      -5.783  -2.746  -0.318  0.00  0.00    +0.027 HD
ATOM     26  H   UNL     1      -3.853  -1.788  -1.621  0.00  0.00    +0.032 HD
ATOM     27  H   UNL     1      -5.356  -0.925  -1.852  0.00  0.00    +0.032 HD
BRANCH   3  28
ATOM     28  O   UNL     1      -2.179   3.636   0.875  0.00  0.00    -0.480 OA
ATOM     29  H   UNL     1      -1.302   3.747   1.360  0.00  0.00    +0.295 HD
ENDBRANCH   3  28
ENDBRANCH   1  15
BRANCH   1  30
ATOM     30  C   UNL     1       0.445   0.658  -0.487  0.00  0.00    -0.038 A 
ATOM     31  C   UNL     1       0.655   1.465  -1.619  0.00  0.00    -0.058 A 
ATOM     32  C   UNL     1       1.437   1.009  -2.683  0.00  0.00    -0.060 A 
ATOM     33  C   UNL     1       2.029  -0.253  -2.627  0.00  0.00    -0.039 A 
ATOM     34  C   UNL     1       1.847  -1.068  -1.504  0.00  0.00    +0.048 A 
ATOM     35  C   UNL     1       1.027  -0.627  -0.454  0.00  0.00    -0.036 A 
ATOM     36  H   UNL     1       0.210   2.451  -1.678  0.00  0.00    +0.062 HD
ATOM     37  H   UNL     1       1.589   1.639  -3.550  0.00  0.00    +0.062 HD
ATOM     38  H   UNL     1       2.646  -0.589  -3.450  0.00  0.00    +0.064 HD
ATOM     39  H   UNL     1       0.844  -1.291   0.377  0.00  0.00    +0.064 HD
BRANCH  34  40
ATOM     40  N   UNL     1       2.479  -2.352  -1.453  0.00  0.00    -0.216 N 
ATOM     41  H   UNL     1       2.613  -2.871  -2.350  0.00  0.00    +0.174 HD
BRANCH  40  42
ATOM     42  S   UNL     1       3.495  -2.837  -0.130  0.00  0.00    +0.073 S 
ATOM     43  O   UNL     1       2.896  -2.455   1.194  0.00  0.00    -0.150 OA
ATOM     44  O   UNL     1       3.608  -4.335  -0.153  0.00  0.00    -0.150 OA
BRANCH  42  45
ATOM     45  C   UNL     1       5.108  -2.115  -0.328  0.00  0.00    +0.116 A 
ATOM     46  C   UNL     1       6.130  -2.939  -0.828  0.00  0.00    -0.034 A 
ATOM     47  C   UNL     1       7.414  -2.442  -1.045  0.00  0.00    -0.059 A 
ATOM     48  C   UNL     1       7.704  -1.108  -0.777  0.00  0.00    -0.054 A 
ATOM     49  C   UNL     1       6.709  -0.253  -0.288  0.00  0.00    -0.016 A 
ATOM     50  C   UNL     1       7.013   1.094  -0.034  0.00  0.00    -0.054 A 
ATOM     51  C   UNL     1       6.032   1.959   0.448  0.00  0.00    -0.061 A 
ATOM     52  C   UNL     1       4.742   1.488   0.686  0.00  0.00    -0.061 A 
ATOM     53  C   UNL     1       4.424   0.150   0.444  0.00  0.00    -0.052 A 
ATOM     54  C   UNL     1       5.394  -0.747  -0.053  0.00  0.00    +0.009 A 
ATOM     55  H   UNL     1       5.936  -3.978  -1.062  0.00  0.00    +0.064 HD
ATOM     56  H   UNL     1       8.187  -3.095  -1.429  0.00  0.00    +0.062 HD
ATOM     57  H   UNL     1       8.709  -0.742  -0.958  0.00  0.00    +0.062 HD
ATOM     58  H   UNL     1       8.011   1.479  -0.212  0.00  0.00    +0.062 HD
ATOM     59  H   UNL     1       6.271   2.997   0.639  0.00  0.00    +0.062 HD
ATOM     60  H   UNL     1       3.984   2.162   1.062  0.00  0.00    +0.062 HD
ATOM     61  H   UNL     1       3.418  -0.159   0.656  0.00  0.00    +0.062 HD
ENDBRANCH  42  45
ENDBRANCH  40  42
ENDBRANCH  34  40
ENDBRANCH   1  30
BRANCH   1  62
ATOM     62  C   UNL     1      -0.254   0.429   1.979  0.00  0.00    -0.030 C 
ATOM     63  C   UNL     1       1.048   0.676   2.728  0.00  0.00    -0.049 C 
ATOM     64  C   UNL     1      -0.252   1.268   3.249  0.00  0.00    -0.049 C 
ATOM     65  H   UNL     1      -0.680  -0.591   2.095  0.00  0.00    +0.031 HD
ATOM     66  H   UNL     1       1.415  -0.198   3.306  0.00  0.00    +0.027 HD
ATOM     67  H   UNL     1       1.737   1.420   2.275  0.00  0.00    +0.027 HD
ATOM     68  H   UNL     1      -0.650   0.749   4.147  0.00  0.00    +0.027 HD
ATOM     69  H   UNL     1      -0.321   2.369   3.125  0.00  0.00    +0.027 HD
ENDBRANCH   1  62
TORSDOF 7
