REMARK  Name = 
REMARK  18 active torsions:
REMARK  status: ('A' for Active; 'I' for Inactive)
REMARK    1  A    between atoms: C_1  and  C_2
REMARK    2  A    between atoms: N_4  and  C_5
REMARK    3  A    between atoms: C_5  and  C_6
REMARK    4  A    between atoms: C_5  and  C_10
REMARK    5  A    between atoms: C_6  and  C_7
REMARK    6  A    between atoms: N_12  and  C_13
REMARK    7  A    between atoms: C_13  and  C_14
REMARK    8  A    between atoms: C_13  and  C_22
REMARK    9  A    between atoms: C_14  and  S_15
REMARK   10  A    between atoms: S_15  and  C_16
REMARK   11  A    between atoms: C_22  and  O_23
REMARK   12  A    between atoms: C_22  and  C_24
REMARK   13  A    between atoms: C_24  and  C_25
REMARK   14  A    between atoms: C_30  and  C_31
REMARK   15  A    between atoms: N_33  and  C_34
REMARK   16  A    between atoms: C_34  and  C_35
REMARK   17  A    between atoms: C_34  and  C_36
REMARK   18  A    between atoms: C_34  and  C_37
REMARK                            x       y       z     vdW  Elec       q    Type
REMARK                         _______ _______ _______ _____ _____    ______ ____
ROOT
ATOM      1  C   UNL     1       0.232   1.471   0.468  0.00  0.00    +0.059 C 
ATOM      2  H   UNL     1      -0.493   0.978   1.153  0.00  0.00    +0.053 HD
ENDROOT
BRANCH   1   5
ATOM      3  C   UNL     1       1.746  -0.411   1.281  0.00  0.00    +0.234 C 
ATOM      4  O   UNL     1       0.816  -0.908   1.973  0.00  0.00    -0.274 OA
ATOM      5  N   UNL     1       1.553   0.849   0.618  0.00  0.00    -0.308 N 
ATOM      6  H   UNL     1       2.361   1.267   0.104  0.00  0.00    +0.149 HD
BRANCH   3   7
ATOM      7  C   UNL     1       3.071  -1.128   1.158  0.00  0.00    +0.108 C 
ATOM      8  H   UNL     1       3.855  -0.396   1.454  0.00  0.00    +0.060 HD
BRANCH   7  11
ATOM      9  C   UNL     1       2.349  -3.463   1.979  0.00  0.00    +0.211 C 
ATOM     10  O   UNL     1       1.430  -3.551   1.121  0.00  0.00    -0.276 OA
ATOM     11  N   UNL     1       3.156  -2.276   2.075  0.00  0.00    -0.304 N 
ATOM     12  H   UNL     1       3.872  -2.234   2.835  0.00  0.00    +0.149 HD
BRANCH   9  13
ATOM     13  C   UNL     1       2.583  -4.596   2.923  0.00  0.00    +0.012 C 
ATOM     14  H   UNL     1       3.655  -4.883   2.901  0.00  0.00    +0.032 HD
ATOM     15  H   UNL     1       2.308  -4.284   3.951  0.00  0.00    +0.032 HD
ATOM     16  H   UNL     1       1.971  -5.478   2.635  0.00  0.00    +0.032 HD
ENDBRANCH   9  13
ENDBRANCH   7  11
BRANCH   7  17
ATOM     17  C   UNL     1       3.353  -1.545  -0.300  0.00  0.00    +0.051 C 
ATOM     18  H   UNL     1       3.345  -0.647  -0.955  0.00  0.00    +0.038 HD
ATOM     19  H   UNL     1       2.560  -2.222  -0.680  0.00  0.00    +0.038 HD
BRANCH  17  20
ATOM     20  C   UNL     1       4.695  -2.205  -0.430  0.00  0.00    +0.213 C 
ATOM     21  N   UNL     1       4.804  -3.628  -0.476  0.00  0.00    -0.329 N 
ATOM     22  O   UNL     1       5.737  -1.498  -0.466  0.00  0.00    -0.276 OA
ATOM     23  H   UNL     1       5.741  -4.082  -0.547  0.00  0.00    +0.145 HD
ATOM     24  H   UNL     1       3.952  -4.231  -0.442  0.00  0.00    +0.145 HD
ENDBRANCH  17  20
ENDBRANCH   7  17
ENDBRANCH   3   7
ENDBRANCH   1   5
BRANCH   1  25
ATOM     25  C   UNL     1       0.289   2.947   0.905  0.00  0.00    +0.019 C 
ATOM     26  H   UNL     1       0.634   2.994   1.960  0.00  0.00    +0.040 HD
ATOM     27  H   UNL     1      -0.731   3.386   0.863  0.00  0.00    +0.040 HD
BRANCH  25  28
ATOM     28  S   UNL     1       1.419   3.948  -0.130  0.00  0.00    -0.123 S 
BRANCH  28  29
ATOM     29  C   UNL     1       1.089   5.466   0.767  0.00  0.00    +0.008 A 
ATOM     30  C   UNL     1       1.877   5.813   1.872  0.00  0.00    -0.048 A 
ATOM     31  C   UNL     1       1.619   6.998   2.570  0.00  0.00    -0.061 A 
ATOM     32  C   UNL     1       0.577   7.838   2.163  0.00  0.00    -0.062 A 
ATOM     33  C   UNL     1      -0.208   7.494   1.058  0.00  0.00    -0.061 A 
ATOM     34  C   UNL     1       0.048   6.310   0.359  0.00  0.00    -0.048 A 
ATOM     35  H   UNL     1       2.684   5.166   2.191  0.00  0.00    +0.063 HD
ATOM     36  H   UNL     1       2.227   7.264   3.425  0.00  0.00    +0.062 HD
ATOM     37  H   UNL     1       0.379   8.754   2.704  0.00  0.00    +0.062 HD
ATOM     38  H   UNL     1      -1.014   8.144   0.743  0.00  0.00    +0.062 HD
ATOM     39  H   UNL     1      -0.563   6.048  -0.496  0.00  0.00    +0.063 HD
ENDBRANCH  28  29
ENDBRANCH  25  28
ENDBRANCH   1  25
BRANCH   1  40
ATOM     40  C   UNL     1      -0.296   1.296  -0.982  0.00  0.00    +0.078 C 
ATOM     41  H   UNL     1       0.388   1.825  -1.680  0.00  0.00    +0.062 HD
BRANCH  40  42
ATOM     42  C   UNL     1      -0.325  -0.190  -1.402  0.00  0.00    +0.001 C 
ATOM     43  H   UNL     1       0.715  -0.574  -1.466  0.00  0.00    +0.034 HD
ATOM     44  H   UNL     1      -0.816  -0.785  -0.612  0.00  0.00    +0.034 HD
BRANCH  42  45
ATOM     45  C   UNL     1      -0.985  -0.380  -2.753  0.00  0.00    -0.033 A 
ATOM     46  C   UNL     1      -0.238  -0.067  -3.903  0.00  0.00    -0.058 A 
ATOM     47  C   UNL     1      -0.822  -0.122  -5.170  0.00  0.00    -0.061 A 
ATOM     48  C   UNL     1      -2.163  -0.476  -5.306  0.00  0.00    -0.061 A 
ATOM     49  C   UNL     1      -2.923  -0.786  -4.178  0.00  0.00    -0.049 A 
ATOM     50  C   UNL     1      -2.347  -0.757  -2.897  0.00  0.00    +0.040 A 
ATOM     51  H   UNL     1       0.798   0.236  -3.816  0.00  0.00    +0.062 HD
ATOM     52  H   UNL     1      -0.236   0.122  -6.046  0.00  0.00    +0.062 HD
ATOM     53  H   UNL     1      -2.616  -0.510  -6.289  0.00  0.00    +0.062 HD
ATOM     54  H   UNL     1      -3.962  -1.066  -4.304  0.00  0.00    +0.063 HD
BRANCH  50  55
ATOM     55  C   UNL     1      -3.196  -1.122  -1.745  0.00  0.00    +0.245 C 
ATOM     56  O   UNL     1      -4.281  -0.507  -1.565  0.00  0.00    -0.270 OA
ATOM     57  N   UNL     1      -2.814  -2.208  -0.880  0.00  0.00    -0.307 N 
ATOM     58  H   UNL     1      -2.019  -2.805  -1.207  0.00  0.00    +0.150 HD
BRANCH  57  59
ATOM     59  C   UNL     1      -3.406  -2.482   0.443  0.00  0.00    +0.026 C 
BRANCH  59  60
ATOM     60  C   UNL     1      -3.312  -1.233   1.342  0.00  0.00    -0.044 C 
ATOM     61  H   UNL     1      -3.692  -1.456   2.362  0.00  0.00    +0.025 HD
ATOM     62  H   UNL     1      -2.257  -0.897   1.427  0.00  0.00    +0.025 HD
ATOM     63  H   UNL     1      -3.913  -0.394   0.935  0.00  0.00    +0.025 HD
ENDBRANCH  59  60
BRANCH  59  64
ATOM     64  C   UNL     1      -4.875  -2.919   0.287  0.00  0.00    -0.044 C 
ATOM     65  H   UNL     1      -5.507  -2.093  -0.095  0.00  0.00    +0.025 HD
ATOM     66  H   UNL     1      -4.949  -3.773  -0.421  0.00  0.00    +0.025 HD
ATOM     67  H   UNL     1      -5.295  -3.236   1.266  0.00  0.00    +0.025 HD
ENDBRANCH  59  64
BRANCH  59  68
ATOM     68  C   UNL     1      -2.620  -3.626   1.116  0.00  0.00    -0.044 C 
ATOM     69  H   UNL     1      -3.036  -3.858   2.120  0.00  0.00    +0.025 HD
ATOM     70  H   UNL     1      -2.668  -4.548   0.496  0.00  0.00    +0.025 HD
ATOM     71  H   UNL     1      -1.552  -3.344   1.236  0.00  0.00    +0.025 HD
ENDBRANCH  59  68
ENDBRANCH  57  59
ENDBRANCH  50  55
ENDBRANCH  42  45
ENDBRANCH  40  42
BRANCH  40  72
ATOM     72  O   UNL     1      -1.573   1.874  -1.111  0.00  0.00    -0.390 OA
ATOM     73  H   UNL     1      -2.184   1.391  -0.494  0.00  0.00    +0.210 HD
ENDBRANCH  40  72
ENDBRANCH   1  40
TORSDOF 18
