REMARK  Name = 
REMARK  7 active torsions:
REMARK  status: ('A' for Active; 'I' for Inactive)
REMARK    1  A    between atoms: O_1  and  C_2
REMARK    2  A    between atoms: C_14  and  C_15
REMARK    3  A    between atoms: C_15  and  C_16
REMARK    4  A    between atoms: C_15  and  C_19
REMARK    5  A    between atoms: C_23  and  N_24
REMARK    6  A    between atoms: N_24  and  S_25
REMARK    7  A    between atoms: S_25  and  C_28
REMARK                            x       y       z     vdW  Elec       q    Type
REMARK                         _______ _______ _______ _____ _____    ______ ____
ROOT
ATOM      1  C   UNL     1      -0.137  -0.171  -1.011  0.00  0.00    +0.022 C 
ATOM      2  H   UNL     1       0.383  -1.108  -1.309  0.00  0.00    +0.040 HD
ENDROOT
BRANCH   1  15
ATOM      3  C   UNL     1      -2.045  -1.821  -0.655  0.00  0.00    +0.292 A 
ATOM      4  O   UNL     1      -3.280  -2.112  -0.265  0.00  0.00    -0.429 OA
ATOM      5  C   UNL     1      -4.126  -1.220   0.240  0.00  0.00    +0.116 A 
ATOM      6  C   UNL     1      -5.482  -1.739   0.671  0.00  0.00    +0.006 C 
ATOM      7  C   UNL     1      -6.739  -0.996   0.159  0.00  0.00    -0.046 C 
ATOM      8  C   UNL     1      -6.678  -0.454  -1.279  0.00  0.00    -0.053 C 
ATOM      9  C   UNL     1      -5.755   0.761  -1.530  0.00  0.00    -0.053 C 
ATOM     10  C   UNL     1      -5.548   1.730  -0.341  0.00  0.00    -0.049 C 
ATOM     11  C   UNL     1      -4.685   1.197   0.830  0.00  0.00    -0.021 C 
ATOM     12  C   UNL     1      -3.712   0.123   0.397  0.00  0.00    +0.038 A 
ATOM     13  C   UNL     1      -2.416   0.474  -0.025  0.00  0.00    +0.196 A 
ATOM     14  O   UNL     1      -2.037   1.674   0.051  0.00  0.00    -0.287 OA
ATOM     15  C   UNL     1      -1.549  -0.508  -0.546  0.00  0.00    +0.087 A 
ATOM     16  H   UNL     1      -5.511  -1.760   1.781  0.00  0.00    +0.034 HD
ATOM     17  H   UNL     1      -5.563  -2.798   0.340  0.00  0.00    +0.034 HD
ATOM     18  H   UNL     1      -7.578  -1.725   0.196  0.00  0.00    +0.027 HD
ATOM     19  H   UNL     1      -7.056  -0.199   0.859  0.00  0.00    +0.027 HD
ATOM     20  H   UNL     1      -7.713  -0.155  -1.558  0.00  0.00    +0.027 HD
ATOM     21  H   UNL     1      -6.391  -1.278  -1.968  0.00  0.00    +0.027 HD
ATOM     22  H   UNL     1      -6.198   1.347  -2.365  0.00  0.00    +0.027 HD
ATOM     23  H   UNL     1      -4.776   0.415  -1.924  0.00  0.00    +0.027 HD
ATOM     24  H   UNL     1      -5.045   2.637  -0.743  0.00  0.00    +0.027 HD
ATOM     25  H   UNL     1      -6.536   2.063   0.046  0.00  0.00    +0.027 HD
ATOM     26  H   UNL     1      -5.315   0.824   1.661  0.00  0.00    +0.032 HD
ATOM     27  H   UNL     1      -4.139   2.051   1.286  0.00  0.00    +0.032 HD
BRANCH   3  28
ATOM     28  O   UNL     1      -1.251  -2.840  -1.176  0.00  0.00    -0.480 OA
ATOM     29  H   UNL     1      -1.607  -3.785  -1.256  0.00  0.00    +0.295 HD
ENDBRANCH   3  28
ENDBRANCH   1  15
BRANCH   1  30
ATOM     30  C   UNL     1       0.693   0.394   0.133  0.00  0.00    -0.038 A 
ATOM     31  C   UNL     1       0.956   1.772   0.278  0.00  0.00    -0.058 A 
ATOM     32  C   UNL     1       1.748   2.235   1.331  0.00  0.00    -0.060 A 
ATOM     33  C   UNL     1       2.297   1.335   2.245  0.00  0.00    -0.039 A 
ATOM     34  C   UNL     1       2.045  -0.038   2.120  0.00  0.00    +0.048 A 
ATOM     35  C   UNL     1       1.219  -0.497   1.086  0.00  0.00    -0.036 A 
ATOM     36  H   UNL     1       0.558   2.496  -0.419  0.00  0.00    +0.062 HD
ATOM     37  H   UNL     1       1.947   3.294   1.432  0.00  0.00    +0.062 HD
ATOM     38  H   UNL     1       2.924   1.708   3.045  0.00  0.00    +0.064 HD
ATOM     39  H   UNL     1       1.031  -1.560   0.990  0.00  0.00    +0.064 HD
BRANCH  34  40
ATOM     40  N   UNL     1       2.679  -0.984   2.990  0.00  0.00    -0.216 N 
ATOM     41  H   UNL     1       2.217  -1.906   3.155  0.00  0.00    +0.174 HD
BRANCH  40  42
ATOM     42  S   UNL     1       4.372  -0.870   3.351  0.00  0.00    +0.073 S 
ATOM     43  O   UNL     1       4.948  -2.248   3.513  0.00  0.00    -0.150 OA
ATOM     44  O   UNL     1       4.541  -0.117   4.641  0.00  0.00    -0.150 OA
BRANCH  42  45
ATOM     45  C   UNL     1       5.219  -0.045   2.025  0.00  0.00    +0.116 A 
ATOM     46  C   UNL     1       5.981   1.094   2.329  0.00  0.00    -0.034 A 
ATOM     47  C   UNL     1       6.582   1.843   1.318  0.00  0.00    -0.059 A 
ATOM     48  C   UNL     1       6.426   1.476  -0.016  0.00  0.00    -0.054 A 
ATOM     49  C   UNL     1       5.679   0.340  -0.353  0.00  0.00    -0.016 A 
ATOM     50  C   UNL     1       5.514  -0.013  -1.702  0.00  0.00    -0.054 A 
ATOM     51  C   UNL     1       4.771  -1.142  -2.048  0.00  0.00    -0.061 A 
ATOM     52  C   UNL     1       4.201  -1.936  -1.054  0.00  0.00    -0.061 A 
ATOM     53  C   UNL     1       4.362  -1.603   0.293  0.00  0.00    -0.052 A 
ATOM     54  C   UNL     1       5.082  -0.448   0.668  0.00  0.00    +0.009 A 
ATOM     55  H   UNL     1       6.099   1.420   3.353  0.00  0.00    +0.064 HD
ATOM     56  H   UNL     1       7.161   2.722   1.571  0.00  0.00    +0.062 HD
ATOM     57  H   UNL     1       6.890   2.082  -0.786  0.00  0.00    +0.062 HD
ATOM     58  H   UNL     1       5.956   0.587  -2.489  0.00  0.00    +0.062 HD
ATOM     59  H   UNL     1       4.641  -1.405  -3.090  0.00  0.00    +0.062 HD
ATOM     60  H   UNL     1       3.633  -2.816  -1.328  0.00  0.00    +0.062 HD
ATOM     61  H   UNL     1       3.915  -2.257   1.026  0.00  0.00    +0.062 HD
ENDBRANCH  42  45
ENDBRANCH  40  42
ENDBRANCH  34  40
ENDBRANCH   1  30
BRANCH   1  62
ATOM     62  C   UNL     1      -0.186   0.747  -2.255  0.00  0.00    -0.030 C 
ATOM     63  C   UNL     1      -0.201   0.033  -3.600  0.00  0.00    -0.049 C 
ATOM     64  C   UNL     1       1.063   0.733  -3.124  0.00  0.00    -0.049 C 
ATOM     65  H   UNL     1      -0.745   1.707  -2.238  0.00  0.00    +0.031 HD
ATOM     66  H   UNL     1      -0.739   0.578  -4.404  0.00  0.00    +0.027 HD
ATOM     67  H   UNL     1      -0.141  -1.076  -3.574  0.00  0.00    +0.027 HD
ATOM     68  H   UNL     1       1.873   0.042  -2.804  0.00  0.00    +0.027 HD
ATOM     69  H   UNL     1       1.272   1.693  -3.641  0.00  0.00    +0.027 HD
ENDBRANCH   1  62
TORSDOF 7
