REMARK  Name = 
REMARK  16 active torsions:
REMARK  status: ('A' for Active; 'I' for Inactive)
REMARK    1  A    between atoms: C_1  and  C_2
REMARK    2  A    between atoms: C_2  and  C_3
REMARK    3  A    between atoms: C_2  and  C_4
REMARK    4  A    between atoms: C_4  and  C_5
REMARK    5  A    between atoms: C_5  and  C_6
REMARK    6  A    between atoms: C_6  and  C_7
REMARK    7  A    between atoms: C_19  and  S_20
REMARK    8  A    between atoms: S_20  and  C_21
REMARK    9  A    between atoms: C_23  and  C_24
REMARK   10  A    between atoms: C_25  and  C_26
REMARK   11  A    between atoms: C_26  and  O_27
REMARK   12  A    between atoms: C_29  and  C_30
REMARK   13  A    between atoms: C_30  and  C_31
REMARK   14  A    between atoms: C_30  and  C_32
REMARK   15  A    between atoms: C_30  and  C_33
REMARK   16  A    between atoms: C_34  and  O_35
REMARK                            x       y       z     vdW  Elec       q    Type
REMARK                         _______ _______ _______ _____ _____    ______ ____
ROOT
ATOM      1  C   UNL     1       1.518  -0.081  -0.202  0.00  0.00    +0.123 C 
ATOM      2  C   UNL     1       1.220   1.043  -1.243  0.00  0.00    +0.051 C 
ATOM      3  C   UNL     1      -0.155   0.941  -1.831  0.00  0.00    +0.180 C 
ATOM      4  O   UNL     1      -0.668   1.959  -2.362  0.00  0.00    -0.291 OA
ATOM      5  C   UNL     1      -0.843  -0.358  -1.902  0.00  0.00    +0.135 C 
ATOM      6  C   UNL     1      -0.238  -1.439  -1.394  0.00  0.00    +0.297 C 
ATOM      7  O   UNL     1       0.951  -1.321  -0.659  0.00  0.00    -0.456 OA
ATOM      8  H   UNL     1       1.924   0.968  -2.101  0.00  0.00    +0.038 HD
ATOM      9  H   UNL     1       1.368   2.050  -0.806  0.00  0.00    +0.038 HD
ENDROOT
BRANCH   1  10
ATOM     10  C   UNL     1       3.062  -0.294  -0.175  0.00  0.00    -0.006 C 
ATOM     11  H   UNL     1       3.587   0.659   0.050  0.00  0.00    +0.031 HD
ATOM     12  H   UNL     1       3.386  -0.594  -1.197  0.00  0.00    +0.031 HD
BRANCH  10  13
ATOM     13  C   UNL     1       3.535  -1.388   0.799  0.00  0.00    -0.000 C 
ATOM     14  H   UNL     1       2.964  -2.326   0.633  0.00  0.00    +0.033 HD
ATOM     15  H   UNL     1       3.384  -1.068   1.850  0.00  0.00    +0.033 HD
BRANCH  13  16
ATOM     16  C   UNL     1       4.991  -1.664   0.602  0.00  0.00    +0.080 A 
ATOM     17  N   UNL     1       5.971  -0.944   1.203  0.00  0.00    -0.244 NA
ATOM     18  C   UNL     1       7.197  -1.364   0.802  0.00  0.00    +0.078 A 
ATOM     19  C   UNL     1       8.403  -0.821   1.249  0.00  0.00    -0.035 A 
ATOM     20  C   UNL     1       9.607  -1.346   0.748  0.00  0.00    -0.060 A 
ATOM     21  C   UNL     1       9.592  -2.398  -0.189  0.00  0.00    -0.061 A 
ATOM     22  C   UNL     1       8.373  -2.935  -0.633  0.00  0.00    -0.046 A 
ATOM     23  C   UNL     1       7.195  -2.399  -0.120  0.00  0.00    +0.039 A 
ATOM     24  S   UNL     1       5.609  -2.826  -0.467  0.00  0.00    -0.072 S 
ATOM     25  H   UNL     1       8.413  -0.011   1.968  0.00  0.00    +0.064 HD
ATOM     26  H   UNL     1      10.551  -0.938   1.084  0.00  0.00    +0.062 HD
ATOM     27  H   UNL     1      10.525  -2.794  -0.569  0.00  0.00    +0.062 HD
ATOM     28  H   UNL     1       8.351  -3.742  -1.354  0.00  0.00    +0.063 HD
ENDBRANCH  13  16
ENDBRANCH  10  13
ENDBRANCH   1  10
BRANCH   6  29
ATOM     29  O   UNL     1      -0.778  -2.705  -1.592  0.00  0.00    -0.479 OA
ATOM     30  H   UNL     1      -0.326  -3.525  -1.206  0.00  0.00    +0.295 HD
ENDBRANCH   6  29
BRANCH   1  31
ATOM     31  C   UNL     1       0.953   0.251   1.240  0.00  0.00    -0.006 C 
ATOM     32  H   UNL     1       1.141  -0.637   1.881  0.00  0.00    +0.033 HD
BRANCH  31  33
ATOM     33  C   UNL     1       1.639   1.447   1.933  0.00  0.00    -0.059 C 
ATOM     34  H   UNL     1       1.239   1.565   2.963  0.00  0.00    +0.023 HD
ATOM     35  H   UNL     1       2.730   1.289   2.038  0.00  0.00    +0.023 HD
ATOM     36  H   UNL     1       1.454   2.396   1.391  0.00  0.00    +0.023 HD
ENDBRANCH  31  33
BRANCH  31  37
ATOM     37  C   UNL     1      -0.572   0.455   1.290  0.00  0.00    -0.059 C 
ATOM     38  H   UNL     1      -0.903   0.607   2.340  0.00  0.00    +0.023 HD
ATOM     39  H   UNL     1      -1.099  -0.446   0.923  0.00  0.00    +0.023 HD
ATOM     40  H   UNL     1      -0.883   1.345   0.706  0.00  0.00    +0.023 HD
ENDBRANCH  31  37
ENDBRANCH   1  31
BRANCH   5  41
ATOM     41  S   UNL     1      -2.453  -0.500  -2.713  0.00  0.00    -0.079 S 
BRANCH  41  42
ATOM     42  C   UNL     1      -3.404  -0.245  -1.194  0.00  0.00    +0.017 A 
ATOM     43  C   UNL     1      -3.477  -1.366  -0.354  0.00  0.00    -0.044 A 
ATOM     44  C   UNL     1      -3.955  -1.276   0.956  0.00  0.00    -0.044 A 
ATOM     45  C   UNL     1      -4.349  -0.021   1.454  0.00  0.00    -0.019 A 
ATOM     46  C   UNL     1      -4.396   1.076   0.583  0.00  0.00    -0.051 A 
ATOM     47  C   UNL     1      -3.999   0.990  -0.775  0.00  0.00    -0.028 A 
ATOM     48  H   UNL     1      -3.112  -2.319  -0.713  0.00  0.00    +0.063 HD
ATOM     49  H   UNL     1      -4.772   2.009   0.979  0.00  0.00    +0.062 HD
BRANCH  44  50
ATOM     50  C   UNL     1      -3.942  -2.506   1.826  0.00  0.00    -0.039 C 
ATOM     51  H   UNL     1      -4.895  -2.594   2.389  0.00  0.00    +0.028 HD
ATOM     52  H   UNL     1      -3.827  -3.431   1.222  0.00  0.00    +0.028 HD
ATOM     53  H   UNL     1      -3.094  -2.446   2.541  0.00  0.00    +0.028 HD
ENDBRANCH  44  50
BRANCH  45  54
ATOM     54  C   UNL     1      -4.811   0.159   2.879  0.00  0.00    +0.069 C 
ATOM     55  H   UNL     1      -4.188  -0.452   3.568  0.00  0.00    +0.061 HD
ATOM     56  H   UNL     1      -4.695   1.220   3.193  0.00  0.00    +0.061 HD
BRANCH  54  57
ATOM     57  O   UNL     1      -6.156  -0.217   2.983  0.00  0.00    -0.390 OA
ATOM     58  H   UNL     1      -6.402  -0.097   3.937  0.00  0.00    +0.210 HD
ENDBRANCH  54  57
ENDBRANCH  45  54
BRANCH  47  59
ATOM     59  C   UNL     1      -4.331   2.219  -1.676  0.00  0.00    -0.012 C 
BRANCH  59  60
ATOM     60  C   UNL     1      -5.848   2.527  -1.573  0.00  0.00    -0.056 C 
ATOM     61  H   UNL     1      -6.152   2.832  -0.551  0.00  0.00    +0.024 HD
ATOM     62  H   UNL     1      -6.443   1.633  -1.861  0.00  0.00    +0.024 HD
ATOM     63  H   UNL     1      -6.134   3.366  -2.244  0.00  0.00    +0.024 HD
ENDBRANCH  59  60
BRANCH  59  64
ATOM     64  C   UNL     1      -3.540   3.451  -1.183  0.00  0.00    -0.056 C 
ATOM     65  H   UNL     1      -3.862   3.767  -0.169  0.00  0.00    +0.024 HD
ATOM     66  H   UNL     1      -2.456   3.228  -1.137  0.00  0.00    +0.024 HD
ATOM     67  H   UNL     1      -3.692   4.318  -1.862  0.00  0.00    +0.024 HD
ENDBRANCH  59  64
BRANCH  59  68
ATOM     68  C   UNL     1      -4.043   2.035  -3.183  0.00  0.00    -0.056 C 
ATOM     69  H   UNL     1      -4.441   2.892  -3.769  0.00  0.00    +0.024 HD
ATOM     70  H   UNL     1      -2.958   2.020  -3.394  0.00  0.00    +0.024 HD
ATOM     71  H   UNL     1      -4.537   1.119  -3.572  0.00  0.00    +0.024 HD
ENDBRANCH  59  68
ENDBRANCH  47  59
ENDBRANCH  41  42
ENDBRANCH   5  41
TORSDOF 16
