REMARK  Name = 
REMARK  9 active torsions:
REMARK  status: ('A' for Active; 'I' for Inactive)
REMARK    1  A    between atoms: C_1  and  C_2
REMARK    2  A    between atoms: C_2  and  C_3
REMARK    3  A    between atoms: C_3  and  C_4
REMARK    4  A    between atoms: C_3  and  C_22
REMARK    5  A    between atoms: C_8  and  N_9
REMARK    6  A    between atoms: N_9  and  S_10
REMARK    7  A    between atoms: S_10  and  C_13
REMARK    8  A    between atoms: C_16  and  C_17
REMARK    9  A    between atoms: C_23  and  O_24
REMARK                            x       y       z     vdW  Elec       q    Type
REMARK                         _______ _______ _______ _____ _____    ______ ____
ROOT
ATOM      1  C   UNL     1      -0.396  -1.804   0.333  0.00  0.00    +0.019 C 
ATOM      2  H   UNL     1      -0.397  -2.325  -0.641  0.00  0.00    +0.040 HD
ENDROOT
BRANCH   1   3
ATOM      3  C   UNL     1      -1.742  -1.115   0.591  0.00  0.00    +0.086 A 
ATOM      4  C   UNL     1      -2.880  -1.336  -0.228  0.00  0.00    +0.134 A 
ATOM      5  C   UNL     1      -4.058  -0.597   0.001  0.00  0.00    +0.033 A 
ATOM      6  C   UNL     1      -5.210  -0.692  -0.974  0.00  0.00    -0.021 C 
ATOM      7  C   UNL     1      -5.131   0.375  -2.095  0.00  0.00    -0.049 C 
ATOM      8  C   UNL     1      -4.349   1.667  -1.750  0.00  0.00    -0.053 C 
ATOM      9  C   UNL     1      -5.016   2.631  -0.742  0.00  0.00    -0.053 C 
ATOM     10  C   UNL     1      -5.956   2.007   0.303  0.00  0.00    -0.046 C 
ATOM     11  C   UNL     1      -5.288   1.175   1.423  0.00  0.00    +0.006 C 
ATOM     12  C   UNL     1      -4.078   0.338   1.061  0.00  0.00    +0.116 A 
ATOM     13  O   UNL     1      -3.010   0.471   1.835  0.00  0.00    -0.427 OA
ATOM     14  C   UNL     1      -1.881  -0.199   1.657  0.00  0.00    +0.344 A 
ATOM     15  O   UNL     1      -0.932   0.006   2.459  0.00  0.00    -0.245 OA
ATOM     16  H   UNL     1      -6.173  -0.635  -0.430  0.00  0.00    +0.032 HD
ATOM     17  H   UNL     1      -5.245  -1.698  -1.443  0.00  0.00    +0.032 HD
ATOM     18  H   UNL     1      -6.157   0.638  -2.433  0.00  0.00    +0.027 HD
ATOM     19  H   UNL     1      -4.621  -0.091  -2.967  0.00  0.00    +0.027 HD
ATOM     20  H   UNL     1      -3.321   1.419  -1.409  0.00  0.00    +0.027 HD
ATOM     21  H   UNL     1      -4.198   2.228  -2.698  0.00  0.00    +0.027 HD
ATOM     22  H   UNL     1      -4.227   3.216  -0.220  0.00  0.00    +0.027 HD
ATOM     23  H   UNL     1      -5.618   3.364  -1.325  0.00  0.00    +0.027 HD
ATOM     24  H   UNL     1      -6.489   2.845   0.803  0.00  0.00    +0.027 HD
ATOM     25  H   UNL     1      -6.768   1.443  -0.196  0.00  0.00    +0.027 HD
ATOM     26  H   UNL     1      -6.053   0.507   1.873  0.00  0.00    +0.034 HD
ATOM     27  H   UNL     1      -4.985   1.881   2.228  0.00  0.00    +0.034 HD
BRANCH   4  28
ATOM     28  O   UNL     1      -2.887  -2.272  -1.270  0.00  0.00    -0.506 OA
ATOM     29  H   UNL     1      -2.200  -2.999  -1.401  0.00  0.00    +0.292 HD
ENDBRANCH   4  28
ENDBRANCH   1   3
BRANCH   1  30
ATOM     30  C   UNL     1       0.716  -0.770   0.174  0.00  0.00    -0.038 A 
ATOM     31  C   UNL     1       0.737   0.013  -0.993  0.00  0.00    -0.058 A 
ATOM     32  C   UNL     1       1.716   0.990  -1.177  0.00  0.00    -0.060 A 
ATOM     33  C   UNL     1       2.688   1.204  -0.201  0.00  0.00    -0.039 A 
ATOM     34  C   UNL     1       2.692   0.437   0.978  0.00  0.00    +0.048 A 
ATOM     35  C   UNL     1       1.699  -0.539   1.161  0.00  0.00    -0.036 A 
ATOM     36  H   UNL     1      -0.014  -0.130  -1.761  0.00  0.00    +0.062 HD
ATOM     37  H   UNL     1       1.718   1.587  -2.080  0.00  0.00    +0.062 HD
ATOM     38  H   UNL     1       3.424   1.975  -0.372  0.00  0.00    +0.064 HD
ATOM     39  H   UNL     1       1.702  -1.109   2.079  0.00  0.00    +0.064 HD
BRANCH  34  40
ATOM     40  N   UNL     1       3.679   0.632   2.007  0.00  0.00    -0.216 N 
ATOM     41  H   UNL     1       3.579   0.118   2.911  0.00  0.00    +0.174 HD
BRANCH  40  42
ATOM     42  S   UNL     1       5.122   1.574   1.799  0.00  0.00    +0.072 S 
ATOM     43  O   UNL     1       6.008   1.395   2.999  0.00  0.00    -0.150 OA
ATOM     44  O   UNL     1       4.749   3.025   1.677  0.00  0.00    -0.150 OA
BRANCH  42  45
ATOM     45  C   UNL     1       5.994   1.032   0.368  0.00  0.00    +0.109 A 
ATOM     46  C   UNL     1       6.040  -0.333   0.053  0.00  0.00    -0.034 A 
ATOM     47  C   UNL     1       6.718  -0.769  -1.089  0.00  0.00    -0.042 A 
ATOM     48  C   UNL     1       7.360   0.157  -1.921  0.00  0.00    +0.052 A 
ATOM     49  C   UNL     1       7.321   1.521  -1.605  0.00  0.00    -0.042 A 
ATOM     50  C   UNL     1       6.641   1.957  -0.463  0.00  0.00    -0.034 A 
ATOM     51  H   UNL     1       5.547  -1.058   0.689  0.00  0.00    +0.064 HD
ATOM     52  H   UNL     1       6.743  -1.827  -1.323  0.00  0.00    +0.063 HD
ATOM     53  H   UNL     1       7.814   2.246  -2.240  0.00  0.00    +0.063 HD
ATOM     54  H   UNL     1       6.618   3.014  -0.230  0.00  0.00    +0.064 HD
BRANCH  48  55
ATOM     55  C   UNL     1       8.058  -0.292  -3.097  0.00  0.00    +0.099 C 
ATOM     56  N   UNL     1       8.620  -0.652  -4.042  0.00  0.00    -0.191 NA
ENDBRANCH  48  55
ENDBRANCH  42  45
ENDBRANCH  40  42
ENDBRANCH  34  40
ENDBRANCH   1  30
BRANCH   1  57
ATOM     57  C   UNL     1      -0.108  -2.898   1.389  0.00  0.00    -0.045 C 
ATOM     58  H   UNL     1      -0.159  -2.479   2.417  0.00  0.00    +0.027 HD
ATOM     59  H   UNL     1       0.917  -3.300   1.232  0.00  0.00    +0.027 HD
BRANCH  57  60
ATOM     60  C   UNL     1      -1.087  -4.068   1.296  0.00  0.00    -0.064 C 
ATOM     61  H   UNL     1      -1.039  -4.535   0.289  0.00  0.00    +0.023 HD
ATOM     62  H   UNL     1      -2.125  -3.727   1.495  0.00  0.00    +0.023 HD
ATOM     63  H   UNL     1      -0.821  -4.836   2.052  0.00  0.00    +0.023 HD
ENDBRANCH  57  60
ENDBRANCH   1  57
TORSDOF 9
