REMARK  Name = 
REMARK  16 active torsions:
REMARK  status: ('A' for Active; 'I' for Inactive)
REMARK    1  A    between atoms: C_1  and  C_2
REMARK    2  A    between atoms: C_3  and  O_4
REMARK    3  A    between atoms: C_8  and  C_9
REMARK    4  A    between atoms: N_11  and  C_12
REMARK    5  A    between atoms: C_12  and  C_13
REMARK    6  A    between atoms: C_12  and  C_35
REMARK    7  A    between atoms: C_13  and  C_14
REMARK    8  A    between atoms: C_14  and  O_15
REMARK    9  A    between atoms: C_14  and  C_16
REMARK   10  A    between atoms: C_16  and  C_17
REMARK   11  A    between atoms: C_16  and  N_24
REMARK   12  A    between atoms: C_17  and  C_18
REMARK   13  A    between atoms: C_25  and  C_27
REMARK   14  A    between atoms: C_31  and  O_32
REMARK   15  A    between atoms: C_33  and  C_34
REMARK   16  A    between atoms: C_35  and  C_36
REMARK                            x       y       z     vdW  Elec       q    Type
REMARK                         _______ _______ _______ _____ _____    ______ ____
ROOT
ATOM      1  C   UNL     1       0.016   1.198   1.051  0.00  0.00    +0.076 C 
ATOM      2  H   UNL     1      -0.416   2.223   0.962  0.00  0.00    +0.061 HD
ENDROOT
BRANCH   1   3
ATOM      3  C   UNL     1       1.482   1.305   0.564  0.00  0.00    -0.006 C 
ATOM      4  H   UNL     1       2.044   1.930   1.292  0.00  0.00    +0.031 HD
ATOM      5  H   UNL     1       1.490   1.878  -0.388  0.00  0.00    +0.031 HD
BRANCH   3   6
ATOM      6  C   UNL     1       2.263  -0.016   0.329  0.00  0.00    +0.030 C 
ATOM      7  H   UNL     1       1.708  -0.608  -0.427  0.00  0.00    +0.050 HD
BRANCH   6  10
ATOM      8  C   UNL     1       4.170  -0.419  -1.312  0.00  0.00    +0.245 C 
ATOM      9  O   UNL     1       3.699  -1.541  -1.644  0.00  0.00    -0.270 OA
ATOM     10  N   UNL     1       3.567   0.328  -0.245  0.00  0.00    -0.308 N 
ATOM     11  H   UNL     1       4.136   1.072   0.221  0.00  0.00    +0.149 HD
BRANCH   8  17
ATOM     12  C   UNL     1       5.478   1.433  -2.458  0.00  0.00    +0.003 A 
ATOM     13  C   UNL     1       6.690   1.874  -3.033  0.00  0.00    +0.120 A 
ATOM     14  C   UNL     1       7.757   0.981  -3.196  0.00  0.00    -0.020 A 
ATOM     15  C   UNL     1       7.633  -0.345  -2.789  0.00  0.00    -0.058 A 
ATOM     16  C   UNL     1       6.453  -0.788  -2.193  0.00  0.00    -0.049 A 
ATOM     17  C   UNL     1       5.377   0.093  -1.996  0.00  0.00    +0.043 A 
ATOM     18  H   UNL     1       8.684   1.315  -3.644  0.00  0.00    +0.065 HD
ATOM     19  H   UNL     1       8.460  -1.031  -2.923  0.00  0.00    +0.062 HD
ATOM     20  H   UNL     1       6.388  -1.817  -1.862  0.00  0.00    +0.063 HD
BRANCH  12  21
ATOM     21  C   UNL     1       4.322   2.398  -2.342  0.00  0.00    -0.036 C 
ATOM     22  H   UNL     1       4.351   3.158  -3.151  0.00  0.00    +0.028 HD
ATOM     23  H   UNL     1       3.349   1.873  -2.442  0.00  0.00    +0.028 HD
ATOM     24  H   UNL     1       4.365   2.920  -1.364  0.00  0.00    +0.028 HD
ENDBRANCH  12  21
BRANCH  13  25
ATOM     25  O   UNL     1       6.832   3.199  -3.445  0.00  0.00    -0.506 OA
ATOM     26  H   UNL     1       7.692   3.538  -3.862  0.00  0.00    +0.292 HD
ENDBRANCH  13  25
ENDBRANCH   8  17
ENDBRANCH   6  10
BRANCH   6  27
ATOM     27  C   UNL     1       2.492  -0.852   1.618  0.00  0.00    -0.009 C 
ATOM     28  H   UNL     1       3.472  -1.374   1.551  0.00  0.00    +0.033 HD
ATOM     29  H   UNL     1       2.568  -0.179   2.499  0.00  0.00    +0.033 HD
BRANCH  27  30
ATOM     30  C   UNL     1       1.447  -1.924   1.837  0.00  0.00    -0.046 A 
ATOM     31  C   UNL     1       1.263  -2.943   0.885  0.00  0.00    -0.059 A 
ATOM     32  C   UNL     1       0.282  -3.921   1.077  0.00  0.00    -0.062 A 
ATOM     33  C   UNL     1      -0.506  -3.907   2.230  0.00  0.00    -0.062 A 
ATOM     34  C   UNL     1      -0.301  -2.925   3.202  0.00  0.00    -0.062 A 
ATOM     35  C   UNL     1       0.681  -1.948   3.017  0.00  0.00    -0.059 A 
ATOM     36  H   UNL     1       1.869  -2.974  -0.011  0.00  0.00    +0.062 HD
ATOM     37  H   UNL     1       0.134  -4.691   0.330  0.00  0.00    +0.062 HD
ATOM     38  H   UNL     1      -1.268  -4.662   2.374  0.00  0.00    +0.062 HD
ATOM     39  H   UNL     1      -0.902  -2.924   4.102  0.00  0.00    +0.062 HD
ATOM     40  H   UNL     1       0.837  -1.208   3.791  0.00  0.00    +0.062 HD
ENDBRANCH  27  30
ENDBRANCH   6  27
ENDBRANCH   3   6
ENDBRANCH   1   3
BRANCH   1  41
ATOM     41  O   UNL     1       0.017   0.830   2.406  0.00  0.00    -0.390 OA
ATOM     42  H   UNL     1      -0.760   1.271   2.839  0.00  0.00    +0.210 HD
ENDBRANCH   1  41
BRANCH   1  43
ATOM     43  C   UNL     1      -0.878   0.225   0.230  0.00  0.00    +0.053 C 
ATOM     44  H   UNL     1      -0.396  -0.769   0.239  0.00  0.00    +0.053 HD
BRANCH  43  45
ATOM     45  N   UNL     1      -2.191   0.083   0.869  0.00  0.00    -0.306 N 
ATOM     46  C   UNL     1      -2.955  -1.130   0.796  0.00  0.00    +0.245 C 
ATOM     47  O   UNL     1      -2.552  -2.090   0.083  0.00  0.00    -0.270 OA
ATOM     48  H   UNL     1      -2.627   0.920   1.319  0.00  0.00    +0.149 HD
BRANCH  46  49
ATOM     49  C   UNL     1      -4.199  -1.272   1.582  0.00  0.00    +0.043 A 
ATOM     50  C   UNL     1      -4.178  -0.868   2.926  0.00  0.00    -0.049 A 
ATOM     51  C   UNL     1      -5.295  -1.044   3.739  0.00  0.00    -0.058 A 
ATOM     52  C   UNL     1      -6.442  -1.646   3.227  0.00  0.00    -0.020 A 
ATOM     53  C   UNL     1      -6.495  -2.058   1.892  0.00  0.00    +0.120 A 
ATOM     54  C   UNL     1      -5.386  -1.833   1.036  0.00  0.00    +0.003 A 
ATOM     55  H   UNL     1      -3.282  -0.437   3.358  0.00  0.00    +0.063 HD
ATOM     56  H   UNL     1      -5.264  -0.735   4.776  0.00  0.00    +0.062 HD
ATOM     57  H   UNL     1      -7.295  -1.804   3.876  0.00  0.00    +0.065 HD
BRANCH  54  58
ATOM     58  C   UNL     1      -5.487  -2.177  -0.432  0.00  0.00    -0.036 C 
ATOM     59  H   UNL     1      -5.323  -3.266  -0.574  0.00  0.00    +0.028 HD
ATOM     60  H   UNL     1      -6.482  -1.894  -0.833  0.00  0.00    +0.028 HD
ATOM     61  H   UNL     1      -4.756  -1.612  -1.045  0.00  0.00    +0.028 HD
ENDBRANCH  54  58
BRANCH  53  62
ATOM     62  O   UNL     1      -7.659  -2.693   1.454  0.00  0.00    -0.506 OA
ATOM     63  H   UNL     1      -7.756  -3.113   0.539  0.00  0.00    +0.292 HD
ENDBRANCH  53  62
ENDBRANCH  46  49
ENDBRANCH  43  45
BRANCH  43  64
ATOM     64  C   UNL     1      -1.050   0.637  -1.251  0.00  0.00    -0.007 C 
ATOM     65  H   UNL     1      -0.057   0.731  -1.740  0.00  0.00    +0.033 HD
ATOM     66  H   UNL     1      -1.569  -0.185  -1.790  0.00  0.00    +0.033 HD
BRANCH  64  67
ATOM     67  C   UNL     1      -1.841   1.911  -1.431  0.00  0.00    -0.046 A 
ATOM     68  C   UNL     1      -3.247   1.877  -1.441  0.00  0.00    -0.059 A 
ATOM     69  C   UNL     1      -3.981   3.057  -1.590  0.00  0.00    -0.062 A 
ATOM     70  C   UNL     1      -3.321   4.279  -1.734  0.00  0.00    -0.062 A 
ATOM     71  C   UNL     1      -1.924   4.323  -1.733  0.00  0.00    -0.062 A 
ATOM     72  C   UNL     1      -1.185   3.145  -1.584  0.00  0.00    -0.059 A 
ATOM     73  H   UNL     1      -3.773   0.937  -1.332  0.00  0.00    +0.062 HD
ATOM     74  H   UNL     1      -5.063   3.023  -1.593  0.00  0.00    +0.062 HD
ATOM     75  H   UNL     1      -3.891   5.192  -1.849  0.00  0.00    +0.062 HD
ATOM     76  H   UNL     1      -1.413   5.270  -1.848  0.00  0.00    +0.062 HD
ATOM     77  H   UNL     1      -0.105   3.197  -1.589  0.00  0.00    +0.062 HD
ENDBRANCH  64  67
ENDBRANCH  43  64
ENDBRANCH   1  43
TORSDOF 16
