REMARK  Name = 
REMARK  11 active torsions:
REMARK  status: ('A' for Active; 'I' for Inactive)
REMARK    1  A    between atoms: O_1  and  C_2
REMARK    2  A    between atoms: C_3  and  O_4
REMARK    3  A    between atoms: C_5  and  C_6
REMARK    4  A    between atoms: C_6  and  C_7
REMARK    5  A    between atoms: N_13  and  C_14
REMARK    6  A    between atoms: C_14  and  C_15
REMARK    7  A    between atoms: N_22  and  C_23
REMARK    8  A    between atoms: N_25  and  C_26
REMARK    9  A    between atoms: C_26  and  C_27
REMARK   10  A    between atoms: C_33  and  C_34
REMARK   11  A    between atoms: C_34  and  C_35
REMARK                            x       y       z     vdW  Elec       q    Type
REMARK                         _______ _______ _______ _____ _____    ______ ____
ROOT
ATOM      1  C   UNL     1       1.228  -2.225  -0.060  0.00  0.00    +0.102 C 
ATOM      2  C   UNL     1      -0.305  -2.049   0.106  0.00  0.00    +0.102 C 
ATOM      3  C   UNL     1      -0.722  -0.741   0.832  0.00  0.00    +0.058 C 
ATOM      4  N   UNL     1      -0.653   0.458  -0.035  0.00  0.00    -0.296 N 
ATOM      5  C   UNL     1       0.343   0.641  -1.076  0.00  0.00    +0.197 C 
ATOM      6  N   UNL     1      -0.011   1.292  -2.152  0.00  0.00    -0.142 NA
ATOM      7  N   UNL     1       1.673   0.071  -0.954  0.00  0.00    -0.296 N 
ATOM      8  C   UNL     1       1.849  -1.376  -1.200  0.00  0.00    +0.058 C 
ATOM      9  H   UNL     1       1.722  -1.923   0.887  0.00  0.00    +0.064 HD
ATOM     10  H   UNL     1      -0.796  -2.043  -0.893  0.00  0.00    +0.064 HD
ATOM     11  H   UNL     1      -1.792  -0.916   1.067  0.00  0.00    +0.053 HD
ATOM     12  H   UNL     1       2.936  -1.614  -1.168  0.00  0.00    +0.053 HD
ENDROOT
BRANCH   4  13
ATOM     13  C   UNL     1      -1.686   1.502   0.134  0.00  0.00    +0.018 C 
ATOM     14  H   UNL     1      -2.082   1.502   1.170  0.00  0.00    +0.047 HD
ATOM     15  H   UNL     1      -1.210   2.499  -0.002  0.00  0.00    +0.047 HD
BRANCH  13  16
ATOM     16  C   UNL     1      -2.867   1.336  -0.856  0.00  0.00    -0.025 C 
ATOM     17  C   UNL     1      -3.757   0.116  -0.506  0.00  0.00    -0.049 C 
ATOM     18  C   UNL     1      -5.186   0.204  -1.084  0.00  0.00    -0.053 C 
ATOM     19  C   UNL     1      -5.257   1.110  -2.316  0.00  0.00    -0.053 C 
ATOM     20  C   UNL     1      -4.813   2.548  -1.984  0.00  0.00    -0.053 C 
ATOM     21  C   UNL     1      -3.718   2.620  -0.899  0.00  0.00    -0.049 C 
ATOM     22  H   UNL     1      -2.464   1.180  -1.878  0.00  0.00    +0.032 HD
ATOM     23  H   UNL     1      -3.852   0.011   0.597  0.00  0.00    +0.027 HD
ATOM     24  H   UNL     1      -3.267  -0.803  -0.893  0.00  0.00    +0.027 HD
ATOM     25  H   UNL     1      -5.876   0.605  -0.308  0.00  0.00    +0.027 HD
ATOM     26  H   UNL     1      -5.543  -0.814  -1.351  0.00  0.00    +0.027 HD
ATOM     27  H   UNL     1      -4.603   0.691  -3.112  0.00  0.00    +0.027 HD
ATOM     28  H   UNL     1      -6.297   1.124  -2.709  0.00  0.00    +0.027 HD
ATOM     29  H   UNL     1      -4.441   3.025  -2.917  0.00  0.00    +0.027 HD
ATOM     30  H   UNL     1      -5.693   3.135  -1.642  0.00  0.00    +0.027 HD
ATOM     31  H   UNL     1      -3.073   3.503  -1.102  0.00  0.00    +0.027 HD
ATOM     32  H   UNL     1      -4.194   2.774   0.095  0.00  0.00    +0.027 HD
ENDBRANCH  13  16
ENDBRANCH   4  13
BRANCH   3  33
ATOM     33  C   UNL     1      -0.015  -0.523   2.195  0.00  0.00    -0.006 C 
ATOM     34  H   UNL     1       0.250  -1.503   2.649  0.00  0.00    +0.033 HD
ATOM     35  H   UNL     1       0.931   0.021   2.037  0.00  0.00    +0.033 HD
BRANCH  33  36
ATOM     36  C   UNL     1      -0.885   0.203   3.193  0.00  0.00    -0.046 A 
ATOM     37  C   UNL     1      -2.004  -0.442   3.750  0.00  0.00    -0.059 A 
ATOM     38  C   UNL     1      -2.826   0.229   4.660  0.00  0.00    -0.062 A 
ATOM     39  C   UNL     1      -2.535   1.546   5.028  0.00  0.00    -0.062 A 
ATOM     40  C   UNL     1      -1.419   2.191   4.489  0.00  0.00    -0.062 A 
ATOM     41  C   UNL     1      -0.595   1.523   3.578  0.00  0.00    -0.059 A 
ATOM     42  H   UNL     1      -2.241  -1.462   3.475  0.00  0.00    +0.062 HD
ATOM     43  H   UNL     1      -3.689  -0.271   5.081  0.00  0.00    +0.062 HD
ATOM     44  H   UNL     1      -3.173   2.064   5.732  0.00  0.00    +0.062 HD
ATOM     45  H   UNL     1      -1.192   3.209   4.777  0.00  0.00    +0.062 HD
ATOM     46  H   UNL     1       0.264   2.037   3.177  0.00  0.00    +0.062 HD
ENDBRANCH  33  36
ENDBRANCH   3  33
BRANCH   7  47
ATOM     47  C   UNL     1       2.866   0.954  -1.043  0.00  0.00    +0.018 C 
ATOM     48  H   UNL     1       2.738   1.715  -1.834  0.00  0.00    +0.047 HD
ATOM     49  H   UNL     1       3.764   0.378  -1.358  0.00  0.00    +0.047 HD
BRANCH  47  50
ATOM     50  C   UNL     1       3.223   1.703   0.257  0.00  0.00    -0.025 C 
ATOM     51  C   UNL     1       3.697   0.761   1.388  0.00  0.00    -0.049 C 
ATOM     52  C   UNL     1       3.580   1.390   2.792  0.00  0.00    -0.053 C 
ATOM     53  C   UNL     1       3.707   2.917   2.751  0.00  0.00    -0.053 C 
ATOM     54  C   UNL     1       2.614   3.568   1.877  0.00  0.00    -0.053 C 
ATOM     55  C   UNL     1       2.121   2.667   0.726  0.00  0.00    -0.049 C 
ATOM     56  H   UNL     1       4.097   2.344  -0.005  0.00  0.00    +0.032 HD
ATOM     57  H   UNL     1       3.130  -0.189   1.376  0.00  0.00    +0.027 HD
ATOM     58  H   UNL     1       4.761   0.494   1.200  0.00  0.00    +0.027 HD
ATOM     59  H   UNL     1       2.602   1.125   3.246  0.00  0.00    +0.027 HD
ATOM     60  H   UNL     1       4.372   0.971   3.451  0.00  0.00    +0.027 HD
ATOM     61  H   UNL     1       4.710   3.183   2.349  0.00  0.00    +0.027 HD
ATOM     62  H   UNL     1       3.645   3.323   3.784  0.00  0.00    +0.027 HD
ATOM     63  H   UNL     1       1.746   3.845   2.514  0.00  0.00    +0.027 HD
ATOM     64  H   UNL     1       3.019   4.513   1.454  0.00  0.00    +0.027 HD
ATOM     65  H   UNL     1       1.244   2.089   1.070  0.00  0.00    +0.027 HD
ATOM     66  H   UNL     1       1.787   3.307  -0.119  0.00  0.00    +0.027 HD
ENDBRANCH  47  50
ENDBRANCH   7  47
BRANCH   8  67
ATOM     67  C   UNL     1       1.378  -1.738  -2.636  0.00  0.00    -0.006 C 
ATOM     68  H   UNL     1       1.908  -1.074  -3.352  0.00  0.00    +0.033 HD
ATOM     69  H   UNL     1       0.297  -1.526  -2.768  0.00  0.00    +0.033 HD
BRANCH  67  70
ATOM     70  C   UNL     1       1.683  -3.160  -3.034  0.00  0.00    -0.046 A 
ATOM     71  C   UNL     1       0.653  -4.114  -3.112  0.00  0.00    -0.059 A 
ATOM     72  C   UNL     1       0.944  -5.436  -3.463  0.00  0.00    -0.062 A 
ATOM     73  C   UNL     1       2.260  -5.814  -3.739  0.00  0.00    -0.062 A 
ATOM     74  C   UNL     1       3.289  -4.872  -3.664  0.00  0.00    -0.062 A 
ATOM     75  C   UNL     1       3.004  -3.549  -3.313  0.00  0.00    -0.059 A 
ATOM     76  H   UNL     1      -0.370  -3.837  -2.894  0.00  0.00    +0.062 HD
ATOM     77  H   UNL     1       0.148  -6.167  -3.519  0.00  0.00    +0.062 HD
ATOM     78  H   UNL     1       2.483  -6.838  -4.009  0.00  0.00    +0.062 HD
ATOM     79  H   UNL     1       4.309  -5.167  -3.877  0.00  0.00    +0.062 HD
ATOM     80  H   UNL     1       3.811  -2.829  -3.256  0.00  0.00    +0.062 HD
ENDBRANCH  67  70
ENDBRANCH   8  67
BRANCH   6  81
ATOM     81  C   UNL     1       0.758   1.472  -3.312  0.00  0.00    +0.208 C 
ATOM     82  N   UNL     1       1.388   1.621  -4.271  0.00  0.00    -0.169 NA
ENDBRANCH   6  81
BRANCH   2  83
ATOM     83  O   UNL     1      -0.816  -3.133   0.846  0.00  0.00    -0.387 OA
ATOM     84  H   UNL     1      -1.020  -3.862   0.203  0.00  0.00    +0.210 HD
ENDBRANCH   2  83
BRANCH   1  85
ATOM     85  O   UNL     1       1.521  -3.587  -0.256  0.00  0.00    -0.387 OA
ATOM     86  H   UNL     1       2.487  -3.713  -0.063  0.00  0.00    +0.210 HD
ENDBRANCH   1  85
TORSDOF 11
