REMARK  Name = 
REMARK  9 active torsions:
REMARK  status: ('A' for Active; 'I' for Inactive)
REMARK    1  A    between atoms: C_1  and  C_2
REMARK    2  A    between atoms: C_2  and  C_3
REMARK    3  A    between atoms: C_3  and  C_4
REMARK    4  A    between atoms: C_3  and  C_22
REMARK    5  A    between atoms: C_8  and  N_9
REMARK    6  A    between atoms: N_9  and  S_10
REMARK    7  A    between atoms: S_10  and  C_13
REMARK    8  A    between atoms: C_16  and  C_17
REMARK    9  A    between atoms: C_23  and  O_24
REMARK                            x       y       z     vdW  Elec       q    Type
REMARK                         _______ _______ _______ _____ _____    ______ ____
ROOT
ATOM      1  C   UNL     1      -1.014  -2.259   0.150  0.00  0.00    +0.019 C 
ATOM      2  H   UNL     1      -1.398  -2.602  -0.835  0.00  0.00    +0.040 HD
ENDROOT
BRANCH   1   3
ATOM      3  C   UNL     1      -1.426  -0.801   0.367  0.00  0.00    +0.086 A 
ATOM      4  C   UNL     1      -2.219  -0.126  -0.584  0.00  0.00    +0.134 A 
ATOM      5  C   UNL     1      -2.543   1.239  -0.386  0.00  0.00    +0.033 A 
ATOM      6  C   UNL     1      -3.430   1.987  -1.357  0.00  0.00    -0.021 C 
ATOM      7  C   UNL     1      -4.933   1.861  -1.009  0.00  0.00    -0.049 C 
ATOM      8  C   UNL     1      -5.260   1.584   0.480  0.00  0.00    -0.053 C 
ATOM      9  C   UNL     1      -5.001   2.738   1.478  0.00  0.00    -0.053 C 
ATOM     10  C   UNL     1      -3.921   3.766   1.099  0.00  0.00    -0.046 C 
ATOM     11  C   UNL     1      -2.450   3.291   1.187  0.00  0.00    +0.006 C 
ATOM     12  C   UNL     1      -2.146   1.850   0.828  0.00  0.00    +0.116 A 
ATOM     13  O   UNL     1      -1.423   1.162   1.704  0.00  0.00    -0.427 OA
ATOM     14  C   UNL     1      -1.050  -0.096   1.528  0.00  0.00    +0.344 A 
ATOM     15  O   UNL     1      -0.357  -0.647   2.422  0.00  0.00    -0.245 OA
ATOM     16  H   UNL     1      -3.123   3.049  -1.406  0.00  0.00    +0.032 HD
ATOM     17  H   UNL     1      -3.256   1.654  -2.400  0.00  0.00    +0.032 HD
ATOM     18  H   UNL     1      -5.472   2.772  -1.347  0.00  0.00    +0.027 HD
ATOM     19  H   UNL     1      -5.346   1.013  -1.599  0.00  0.00    +0.027 HD
ATOM     20  H   UNL     1      -4.736   0.668   0.824  0.00  0.00    +0.027 HD
ATOM     21  H   UNL     1      -6.340   1.326   0.541  0.00  0.00    +0.027 HD
ATOM     22  H   UNL     1      -5.955   3.299   1.598  0.00  0.00    +0.027 HD
ATOM     23  H   UNL     1      -4.762   2.310   2.476  0.00  0.00    +0.027 HD
ATOM     24  H   UNL     1      -4.023   4.619   1.805  0.00  0.00    +0.027 HD
ATOM     25  H   UNL     1      -4.146   4.217   0.114  0.00  0.00    +0.027 HD
ATOM     26  H   UNL     1      -1.824   3.950   0.549  0.00  0.00    +0.034 HD
ATOM     27  H   UNL     1      -2.107   3.461   2.232  0.00  0.00    +0.034 HD
BRANCH   4  28
ATOM     28  O   UNL     1      -2.689  -0.837  -1.695  0.00  0.00    -0.506 OA
ATOM     29  H   UNL     1      -3.366  -0.483  -2.356  0.00  0.00    +0.292 HD
ENDBRANCH   4  28
ENDBRANCH   1   3
BRANCH   1  30
ATOM     30  C   UNL     1       0.504  -2.375   0.058  0.00  0.00    -0.038 A 
ATOM     31  C   UNL     1       1.311  -2.761   1.147  0.00  0.00    -0.058 A 
ATOM     32  C   UNL     1       2.700  -2.800   1.019  0.00  0.00    -0.060 A 
ATOM     33  C   UNL     1       3.308  -2.440  -0.184  0.00  0.00    -0.039 A 
ATOM     34  C   UNL     1       2.527  -2.027  -1.276  0.00  0.00    +0.048 A 
ATOM     35  C   UNL     1       1.130  -2.006  -1.147  0.00  0.00    -0.036 A 
ATOM     36  H   UNL     1       0.881  -3.033   2.099  0.00  0.00    +0.062 HD
ATOM     37  H   UNL     1       3.310  -3.108   1.859  0.00  0.00    +0.062 HD
ATOM     38  H   UNL     1       4.385  -2.488  -0.252  0.00  0.00    +0.064 HD
ATOM     39  H   UNL     1       0.526  -1.679  -1.986  0.00  0.00    +0.064 HD
BRANCH  34  40
ATOM     40  N   UNL     1       3.124  -1.622  -2.520  0.00  0.00    -0.216 N 
ATOM     41  H   UNL     1       2.514  -1.503  -3.361  0.00  0.00    +0.174 HD
BRANCH  40  42
ATOM     42  S   UNL     1       4.766  -1.078  -2.656  0.00  0.00    +0.072 S 
ATOM     43  O   UNL     1       4.960  -0.410  -3.988  0.00  0.00    -0.150 OA
ATOM     44  O   UNL     1       5.686  -2.263  -2.563  0.00  0.00    -0.150 OA
BRANCH  42  45
ATOM     45  C   UNL     1       5.115   0.088  -1.383  0.00  0.00    +0.109 A 
ATOM     46  C   UNL     1       4.153   1.044  -1.031  0.00  0.00    -0.034 A 
ATOM     47  C   UNL     1       4.413   1.960  -0.007  0.00  0.00    -0.042 A 
ATOM     48  C   UNL     1       5.640   1.929   0.668  0.00  0.00    +0.052 A 
ATOM     49  C   UNL     1       6.606   0.979   0.313  0.00  0.00    -0.042 A 
ATOM     50  C   UNL     1       6.345   0.061  -0.710  0.00  0.00    -0.034 A 
ATOM     51  H   UNL     1       3.200   1.077  -1.544  0.00  0.00    +0.064 HD
ATOM     52  H   UNL     1       3.658   2.691   0.258  0.00  0.00    +0.063 HD
ATOM     53  H   UNL     1       7.559   0.946   0.827  0.00  0.00    +0.063 HD
ATOM     54  H   UNL     1       7.099  -0.669  -0.973  0.00  0.00    +0.064 HD
BRANCH  48  55
ATOM     55  C   UNL     1       5.908   2.871   1.722  0.00  0.00    +0.099 C 
ATOM     56  N   UNL     1       6.123   3.629   2.570  0.00  0.00    -0.191 NA
ENDBRANCH  48  55
ENDBRANCH  42  45
ENDBRANCH  40  42
ENDBRANCH  34  40
ENDBRANCH   1  30
BRANCH   1  57
ATOM     57  C   UNL     1      -1.701  -3.191   1.178  0.00  0.00    -0.045 C 
ATOM     58  H   UNL     1      -2.795  -2.987   1.163  0.00  0.00    +0.027 HD
ATOM     59  H   UNL     1      -1.357  -2.990   2.212  0.00  0.00    +0.027 HD
BRANCH  57  60
ATOM     60  C   UNL     1      -1.502  -4.672   0.851  0.00  0.00    -0.064 C 
ATOM     61  H   UNL     1      -1.898  -4.901  -0.161  0.00  0.00    +0.023 HD
ATOM     62  H   UNL     1      -0.428  -4.947   0.893  0.00  0.00    +0.023 HD
ATOM     63  H   UNL     1      -2.050  -5.291   1.592  0.00  0.00    +0.023 HD
ENDBRANCH  57  60
ENDBRANCH   1  57
TORSDOF 9
