REMARK  Name = 
REMARK  17 active torsions:
REMARK  status: ('A' for Active; 'I' for Inactive)
REMARK    1  A    between atoms: C_1  and  C_2
REMARK    2  A    between atoms: C_2  and  C_3
REMARK    3  A    between atoms: C_2  and  C_4
REMARK    4  A    between atoms: C_4  and  C_5
REMARK    5  A    between atoms: C_5  and  C_6
REMARK    6  A    between atoms: C_6  and  C_7
REMARK    7  A    between atoms: C_10  and  O_11
REMARK    8  A    between atoms: C_17  and  S_18
REMARK    9  A    between atoms: S_18  and  C_19
REMARK   10  A    between atoms: C_21  and  C_22
REMARK   11  A    between atoms: C_23  and  N_24
REMARK   12  A    between atoms: C_25  and  C_27
REMARK   13  A    between atoms: C_34  and  C_35
REMARK   14  A    between atoms: C_35  and  C_36
REMARK   15  A    between atoms: C_35  and  C_37
REMARK   16  A    between atoms: C_35  and  C_38
REMARK   17  A    between atoms: C_39  and  O_40
REMARK                            x       y       z     vdW  Elec       q    Type
REMARK                         _______ _______ _______ _____ _____    ______ ____
ROOT
ATOM      1  S   UNL     1      -1.136   3.335  -1.361  0.00  0.00    -0.079 S 
ENDROOT
BRANCH   1   6
ATOM      2  C   UNL     1       2.300   2.177   1.695  0.00  0.00    +0.123 C 
ATOM      3  C   UNL     1       0.899   2.580   2.258  0.00  0.00    +0.051 C 
ATOM      4  C   UNL     1       0.024   3.213   1.219  0.00  0.00    +0.180 C 
ATOM      5  O   UNL     1      -0.843   4.059   1.568  0.00  0.00    -0.291 OA
ATOM      6  C   UNL     1       0.132   2.799  -0.187  0.00  0.00    +0.135 C 
ATOM      7  C   UNL     1       1.176   2.053  -0.565  0.00  0.00    +0.297 C 
ATOM      8  O   UNL     1       2.162   1.668   0.356  0.00  0.00    -0.456 OA
ATOM      9  H   UNL     1       1.014   3.259   3.131  0.00  0.00    +0.038 HD
ATOM     10  H   UNL     1       0.337   1.687   2.604  0.00  0.00    +0.038 HD
BRANCH   2  11
ATOM     11  C   UNL     1       2.880   1.039   2.614  0.00  0.00    -0.008 C 
ATOM     12  H   UNL     1       2.081   0.551   3.213  0.00  0.00    +0.031 HD
ATOM     13  H   UNL     1       3.574   1.470   3.369  0.00  0.00    +0.031 HD
BRANCH  11  14
ATOM     14  C   UNL     1       3.590  -0.097   1.851  0.00  0.00    -0.024 C 
ATOM     15  H   UNL     1       2.844  -0.657   1.245  0.00  0.00    +0.031 HD
ATOM     16  H   UNL     1       4.340   0.305   1.139  0.00  0.00    +0.031 HD
BRANCH  14  17
ATOM     17  C   UNL     1       4.264  -1.041   2.809  0.00  0.00    -0.047 A 
ATOM     18  C   UNL     1       3.557  -2.127   3.351  0.00  0.00    -0.055 A 
ATOM     19  C   UNL     1       4.174  -2.984   4.268  0.00  0.00    -0.020 A 
ATOM     20  C   UNL     1       5.501  -2.757   4.660  0.00  0.00    +0.117 A 
ATOM     21  C   UNL     1       6.204  -1.669   4.133  0.00  0.00    -0.020 A 
ATOM     22  C   UNL     1       5.589  -0.811   3.216  0.00  0.00    -0.055 A 
ATOM     23  H   UNL     1       2.529  -2.309   3.064  0.00  0.00    +0.062 HD
ATOM     24  H   UNL     1       3.620  -3.820   4.675  0.00  0.00    +0.065 HD
ATOM     25  H   UNL     1       7.227  -1.486   4.437  0.00  0.00    +0.065 HD
ATOM     26  H   UNL     1       6.144   0.033   2.824  0.00  0.00    +0.062 HD
BRANCH  20  27
ATOM     27  O   UNL     1       6.126  -3.603   5.573  0.00  0.00    -0.507 OA
ATOM     28  H   UNL     1       5.643  -4.399   5.973  0.00  0.00    +0.292 HD
ENDBRANCH  20  27
ENDBRANCH  14  17
ENDBRANCH  11  14
ENDBRANCH   2  11
BRANCH   2  29
ATOM     29  C   UNL     1       3.288   3.413   1.694  0.00  0.00    -0.006 C 
ATOM     30  H   UNL     1       3.422   3.748   2.747  0.00  0.00    +0.033 HD
BRANCH  29  31
ATOM     31  C   UNL     1       4.687   3.051   1.159  0.00  0.00    -0.059 C 
ATOM     32  H   UNL     1       5.333   3.953   1.110  0.00  0.00    +0.023 HD
ATOM     33  H   UNL     1       5.199   2.340   1.838  0.00  0.00    +0.023 HD
ATOM     34  H   UNL     1       4.619   2.613   0.141  0.00  0.00    +0.023 HD
ENDBRANCH  29  31
BRANCH  29  35
ATOM     35  C   UNL     1       2.771   4.639   0.917  0.00  0.00    -0.059 C 
ATOM     36  H   UNL     1       1.864   5.060   1.393  0.00  0.00    +0.023 HD
ATOM     37  H   UNL     1       3.528   5.452   0.932  0.00  0.00    +0.023 HD
ATOM     38  H   UNL     1       2.564   4.385  -0.143  0.00  0.00    +0.023 HD
ENDBRANCH  29  35
ENDBRANCH   2  29
BRANCH   7  39
ATOM     39  O   UNL     1       1.300   1.633  -1.882  0.00  0.00    -0.479 OA
ATOM     40  H   UNL     1       2.087   1.065  -2.170  0.00  0.00    +0.295 HD
ENDBRANCH   7  39
ENDBRANCH   1   6
BRANCH   1  41
ATOM     41  C   UNL     1      -2.079   1.790  -1.333  0.00  0.00    +0.017 A 
ATOM     42  C   UNL     1      -2.587   1.401  -0.084  0.00  0.00    -0.043 A 
ATOM     43  C   UNL     1      -3.176   0.150   0.110  0.00  0.00    -0.028 A 
ATOM     44  C   UNL     1      -3.293  -0.728  -0.979  0.00  0.00    +0.037 A 
ATOM     45  C   UNL     1      -2.889  -0.304  -2.254  0.00  0.00    -0.035 A 
ATOM     46  C   UNL     1      -2.320   0.977  -2.486  0.00  0.00    -0.026 A 
ATOM     47  H   UNL     1      -2.482   2.068   0.761  0.00  0.00    +0.063 HD
ATOM     48  H   UNL     1      -3.073  -0.992  -3.062  0.00  0.00    +0.064 HD
BRANCH  44  49
ATOM     49  N   UNL     1      -3.894  -2.026  -0.811  0.00  0.00    -0.281 N 
ATOM     50  C   UNL     1      -3.396  -3.207  -1.464  0.00  0.00    +0.250 C 
ATOM     51  O   UNL     1      -2.224  -3.212  -1.931  0.00  0.00    -0.270 OA
ATOM     52  H   UNL     1      -4.662  -2.136  -0.113  0.00  0.00    +0.155 HD
BRANCH  50  53
ATOM     53  C   UNL     1      -4.224  -4.433  -1.559  0.00  0.00    +0.055 A 
ATOM     54  C   UNL     1      -3.623  -5.681  -1.798  0.00  0.00    -0.047 A 
ATOM     55  C   UNL     1      -4.406  -6.832  -1.893  0.00  0.00    -0.043 A 
ATOM     56  C   UNL     1      -5.790  -6.730  -1.757  0.00  0.00    +0.028 A 
ATOM     57  N   UNL     1      -6.364  -5.518  -1.539  0.00  0.00    -0.263 NA
ATOM     58  C   UNL     1      -5.624  -4.381  -1.439  0.00  0.00    +0.040 A 
ATOM     59  H   UNL     1      -2.548  -5.768  -1.902  0.00  0.00    +0.063 HD
ATOM     60  H   UNL     1      -3.945  -7.795  -2.071  0.00  0.00    +0.063 HD
ATOM     61  H   UNL     1      -6.410  -7.614  -1.829  0.00  0.00    +0.083 HD
ATOM     62  H   UNL     1      -6.136  -3.441  -1.288  0.00  0.00    +0.084 HD
ENDBRANCH  50  53
ENDBRANCH  44  49
BRANCH  43  63
ATOM     63  C   UNL     1      -3.649  -0.241   1.484  0.00  0.00    -0.038 C 
ATOM     64  H   UNL     1      -4.758  -0.277   1.500  0.00  0.00    +0.028 HD
ATOM     65  H   UNL     1      -3.312   0.483   2.257  0.00  0.00    +0.028 HD
ATOM     66  H   UNL     1      -3.243  -1.238   1.757  0.00  0.00    +0.028 HD
ENDBRANCH  43  63
BRANCH  46  67
ATOM     67  C   UNL     1      -2.107   1.484  -3.950  0.00  0.00    -0.012 C 
BRANCH  67  68
ATOM     68  C   UNL     1      -0.614   1.719  -4.255  0.00  0.00    -0.056 C 
ATOM     69  H   UNL     1      -0.456   1.915  -5.338  0.00  0.00    +0.024 HD
ATOM     70  H   UNL     1      -0.207   2.602  -3.731  0.00  0.00    +0.024 HD
ATOM     71  H   UNL     1      -0.021   0.820  -3.983  0.00  0.00    +0.024 HD
ENDBRANCH  67  68
BRANCH  67  72
ATOM     72  C   UNL     1      -2.615   0.478  -5.020  0.00  0.00    -0.056 C 
ATOM     73  H   UNL     1      -2.036  -0.471  -4.984  0.00  0.00    +0.024 HD
ATOM     74  H   UNL     1      -2.492   0.887  -6.047  0.00  0.00    +0.024 HD
ATOM     75  H   UNL     1      -3.697   0.262  -4.884  0.00  0.00    +0.024 HD
ENDBRANCH  67  72
BRANCH  67  76
ATOM     76  C   UNL     1      -2.907   2.789  -4.181  0.00  0.00    -0.056 C 
ATOM     77  H   UNL     1      -3.972   2.643  -3.900  0.00  0.00    +0.024 HD
ATOM     78  H   UNL     1      -2.869   3.094  -5.250  0.00  0.00    +0.024 HD
ATOM     79  H   UNL     1      -2.510   3.643  -3.603  0.00  0.00    +0.024 HD
ENDBRANCH  67  76
ENDBRANCH  46  67
ENDBRANCH   1  41
TORSDOF 17
