REMARK  Name = 
REMARK  14 active torsions:
REMARK  status: ('A' for Active; 'I' for Inactive)
REMARK    1  A    between atoms: C_1  and  C_2
REMARK    2  A    between atoms: C_2  and  C_3
REMARK    3  A    between atoms: C_2  and  C_4
REMARK    4  A    between atoms: C_2  and  N_5
REMARK    5  A    between atoms: C_6  and  C_8
REMARK    6  A    between atoms: C_13  and  C_14
REMARK    7  A    between atoms: C_14  and  C_15
REMARK    8  A    between atoms: C_15  and  O_16
REMARK    9  A    between atoms: C_15  and  C_17
REMARK   10  A    between atoms: C_17  and  C_18
REMARK   11  A    between atoms: C_17  and  N_30
REMARK   12  A    between atoms: C_18  and  S_19
REMARK   13  A    between atoms: S_19  and  C_20
REMARK   14  A    between atoms: C_31  and  C_33
REMARK                            x       y       z     vdW  Elec       q    Type
REMARK                         _______ _______ _______ _____ _____    ______ ____
ROOT
ATOM      1  C   UNL     1      -0.618   1.496  -1.118  0.00  0.00    +0.059 C 
ATOM      2  H   UNL     1      -0.539   0.476  -0.689  0.00  0.00    +0.053 HD
ENDROOT
BRANCH   1   3
ATOM      3  N   UNL     1      -1.367   2.346  -0.186  0.00  0.00    -0.305 N 
ATOM      4  C   UNL     1      -1.308   2.162   1.237  0.00  0.00    +0.245 C 
ATOM      5  O   UNL     1      -0.564   1.271   1.732  0.00  0.00    -0.270 OA
ATOM      6  H   UNL     1      -1.863   3.187  -0.560  0.00  0.00    +0.149 HD
BRANCH   4   7
ATOM      7  C   UNL     1      -2.067   3.053   2.139  0.00  0.00    +0.047 A 
ATOM      8  C   UNL     1      -1.368   3.708   3.164  0.00  0.00    -0.031 A 
ATOM      9  C   UNL     1      -2.033   4.606   3.998  0.00  0.00    +0.029 A 
ATOM     10  N   UNL     1      -3.359   4.842   3.829  0.00  0.00    -0.255 NA
ATOM     11  C   UNL     1      -4.083   4.213   2.866  0.00  0.00    +0.072 A 
ATOM     12  C   UNL     1      -5.452   4.477   2.749  0.00  0.00    -0.036 A 
ATOM     13  C   UNL     1      -6.215   3.812   1.787  0.00  0.00    -0.060 A 
ATOM     14  C   UNL     1      -5.617   2.872   0.946  0.00  0.00    -0.061 A 
ATOM     15  C   UNL     1      -4.250   2.601   1.051  0.00  0.00    -0.052 A 
ATOM     16  C   UNL     1      -3.457   3.284   1.996  0.00  0.00    +0.012 A 
ATOM     17  H   UNL     1      -0.306   3.545   3.300  0.00  0.00    +0.064 HD
ATOM     18  H   UNL     1      -1.491   5.123   4.779  0.00  0.00    +0.083 HD
ATOM     19  H   UNL     1      -5.929   5.192   3.408  0.00  0.00    +0.064 HD
ATOM     20  H   UNL     1      -7.275   4.016   1.702  0.00  0.00    +0.062 HD
ATOM     21  H   UNL     1      -6.217   2.345   0.215  0.00  0.00    +0.062 HD
ATOM     22  H   UNL     1      -3.831   1.844   0.406  0.00  0.00    +0.062 HD
ENDBRANCH   4   7
ENDBRANCH   1   3
BRANCH   1  23
ATOM     23  C   UNL     1      -1.371   1.379  -2.461  0.00  0.00    +0.019 C 
ATOM     24  H   UNL     1      -1.457   2.378  -2.936  0.00  0.00    +0.040 HD
ATOM     25  H   UNL     1      -0.821   0.716  -3.161  0.00  0.00    +0.040 HD
BRANCH  23  26
ATOM     26  S   UNL     1      -3.071   0.731  -2.254  0.00  0.00    -0.123 S 
BRANCH  26  27
ATOM     27  C   UNL     1      -2.579  -0.940  -1.814  0.00  0.00    +0.009 A 
ATOM     28  C   UNL     1      -2.277  -1.869  -2.816  0.00  0.00    -0.048 A 
ATOM     29  C   UNL     1      -1.899  -3.171  -2.479  0.00  0.00    -0.053 A 
ATOM     30  C   UNL     1      -1.826  -3.558  -1.132  0.00  0.00    -0.018 A 
ATOM     31  C   UNL     1      -1.452  -4.864  -0.780  0.00  0.00    -0.054 A 
ATOM     32  C   UNL     1      -1.383  -5.235   0.566  0.00  0.00    -0.061 A 
ATOM     33  C   UNL     1      -1.678  -4.307   1.568  0.00  0.00    -0.061 A 
ATOM     34  C   UNL     1      -2.054  -3.003   1.231  0.00  0.00    -0.054 A 
ATOM     35  C   UNL     1      -2.136  -2.620  -0.116  0.00  0.00    -0.017 A 
ATOM     36  C   UNL     1      -2.521  -1.318  -0.467  0.00  0.00    -0.041 A 
ATOM     37  H   UNL     1      -2.329  -1.580  -3.858  0.00  0.00    +0.063 HD
ATOM     38  H   UNL     1      -1.665  -3.875  -3.268  0.00  0.00    +0.062 HD
ATOM     39  H   UNL     1      -1.213  -5.595  -1.544  0.00  0.00    +0.062 HD
ATOM     40  H   UNL     1      -1.092  -6.243   0.833  0.00  0.00    +0.062 HD
ATOM     41  H   UNL     1      -1.616  -4.599   2.608  0.00  0.00    +0.062 HD
ATOM     42  H   UNL     1      -2.282  -2.298   2.021  0.00  0.00    +0.062 HD
ATOM     43  H   UNL     1      -2.766  -0.594   0.301  0.00  0.00    +0.063 HD
ENDBRANCH  26  27
ENDBRANCH  23  26
ENDBRANCH   1  23
BRANCH   1  44
ATOM     44  C   UNL     1       0.827   2.033  -1.267  0.00  0.00    +0.078 C 
ATOM     45  H   UNL     1       1.262   2.043  -0.243  0.00  0.00    +0.062 HD
BRANCH  44  46
ATOM     46  C   UNL     1       1.714   1.118  -2.146  0.00  0.00    +0.001 C 
ATOM     47  H   UNL     1       1.536   1.328  -3.223  0.00  0.00    +0.034 HD
ATOM     48  H   UNL     1       1.433   0.052  -2.008  0.00  0.00    +0.034 HD
BRANCH  46  54
ATOM     49  C   UNL     1       3.863   0.489  -0.886  0.00  0.00    +0.040 A 
ATOM     50  C   UNL     1       5.236   0.696  -0.665  0.00  0.00    -0.049 A 
ATOM     51  C   UNL     1       5.921   1.706  -1.343  0.00  0.00    -0.061 A 
ATOM     52  C   UNL     1       5.247   2.521  -2.251  0.00  0.00    -0.061 A 
ATOM     53  C   UNL     1       3.887   2.325  -2.491  0.00  0.00    -0.058 A 
ATOM     54  C   UNL     1       3.181   1.306  -1.828  0.00  0.00    -0.033 A 
ATOM     55  H   UNL     1       5.775   0.087   0.051  0.00  0.00    +0.063 HD
ATOM     56  H   UNL     1       6.977   1.860  -1.159  0.00  0.00    +0.062 HD
ATOM     57  H   UNL     1       5.780   3.306  -2.771  0.00  0.00    +0.062 HD
ATOM     58  H   UNL     1       3.382   2.965  -3.205  0.00  0.00    +0.062 HD
BRANCH  49  60
ATOM     59  N   UNL     1       3.752  -1.894  -0.043  0.00  0.00    -0.307 N 
ATOM     60  C   UNL     1       3.176  -0.578  -0.123  0.00  0.00    +0.245 C 
ATOM     61  O   UNL     1       2.089  -0.320   0.460  0.00  0.00    -0.270 OA
ATOM     62  H   UNL     1       4.661  -2.042  -0.540  0.00  0.00    +0.150 HD
BRANCH  59  63
ATOM     63  C   UNL     1       3.119  -3.053   0.618  0.00  0.00    +0.026 C 
BRANCH  63  64
ATOM     64  C   UNL     1       4.028  -4.287   0.446  0.00  0.00    -0.044 C 
ATOM     65  H   UNL     1       5.026  -4.100   0.900  0.00  0.00    +0.025 HD
ATOM     66  H   UNL     1       4.174  -4.515  -0.632  0.00  0.00    +0.025 HD
ATOM     67  H   UNL     1       3.584  -5.181   0.935  0.00  0.00    +0.025 HD
ENDBRANCH  63  64
BRANCH  63  68
ATOM     68  C   UNL     1       1.755  -3.357  -0.032  0.00  0.00    -0.044 C 
ATOM     69  H   UNL     1       1.334  -4.299   0.378  0.00  0.00    +0.025 HD
ATOM     70  H   UNL     1       1.019  -2.550   0.161  0.00  0.00    +0.025 HD
ATOM     71  H   UNL     1       1.867  -3.471  -1.131  0.00  0.00    +0.025 HD
ENDBRANCH  63  68
BRANCH  63  72
ATOM     72  C   UNL     1       2.945  -2.780   2.124  0.00  0.00    -0.044 C 
ATOM     73  H   UNL     1       3.917  -2.489   2.577  0.00  0.00    +0.025 HD
ATOM     74  H   UNL     1       2.215  -1.966   2.311  0.00  0.00    +0.025 HD
ATOM     75  H   UNL     1       2.571  -3.688   2.645  0.00  0.00    +0.025 HD
ENDBRANCH  63  72
ENDBRANCH  59  63
ENDBRANCH  49  60
ENDBRANCH  46  54
ENDBRANCH  44  46
BRANCH  44  76
ATOM     76  O   UNL     1       0.841   3.364  -1.725  0.00  0.00    -0.390 OA
ATOM     77  H   UNL     1       0.604   3.364  -2.687  0.00  0.00    +0.210 HD
ENDBRANCH  44  76
ENDBRANCH   1  44
TORSDOF 14
