REMARK  Name = 
REMARK  16 active torsions:
REMARK  status: ('A' for Active; 'I' for Inactive)
REMARK    1  A    between atoms: C_1  and  C_2
REMARK    2  A    between atoms: C_3  and  O_4
REMARK    3  A    between atoms: C_8  and  C_9
REMARK    4  A    between atoms: N_11  and  C_12
REMARK    5  A    between atoms: C_12  and  C_13
REMARK    6  A    between atoms: C_12  and  C_35
REMARK    7  A    between atoms: C_13  and  C_14
REMARK    8  A    between atoms: C_14  and  O_15
REMARK    9  A    between atoms: C_14  and  C_16
REMARK   10  A    between atoms: C_16  and  C_17
REMARK   11  A    between atoms: C_16  and  N_24
REMARK   12  A    between atoms: C_17  and  C_18
REMARK   13  A    between atoms: C_25  and  C_27
REMARK   14  A    between atoms: C_31  and  O_32
REMARK   15  A    between atoms: C_33  and  C_34
REMARK   16  A    between atoms: C_35  and  C_36
REMARK                            x       y       z     vdW  Elec       q    Type
REMARK                         _______ _______ _______ _____ _____    ______ ____
ROOT
ATOM      1  C   UNL     1       0.263   0.004  -0.452  0.00  0.00    +0.076 C 
ATOM      2  H   UNL     1      -0.633  -0.131  -1.093  0.00  0.00    +0.061 HD
ENDROOT
BRANCH   1   3
ATOM      3  C   UNL     1      -0.204   0.605   0.902  0.00  0.00    -0.006 C 
ATOM      4  H   UNL     1       0.648   0.649   1.614  0.00  0.00    +0.031 HD
ATOM      5  H   UNL     1      -0.521   1.657   0.733  0.00  0.00    +0.031 HD
BRANCH   3   6
ATOM      6  C   UNL     1      -1.391  -0.134   1.567  0.00  0.00    +0.030 C 
ATOM      7  H   UNL     1      -1.722   0.496   2.424  0.00  0.00    +0.050 HD
BRANCH   6  10
ATOM      8  C   UNL     1      -3.359   0.827   0.271  0.00  0.00    +0.245 C 
ATOM      9  O   UNL     1      -3.178   1.959   0.795  0.00  0.00    -0.270 OA
ATOM     10  N   UNL     1      -2.511  -0.275   0.628  0.00  0.00    -0.308 N 
ATOM     11  H   UNL     1      -2.648  -1.188   0.139  0.00  0.00    +0.149 HD
BRANCH   8  17
ATOM     12  C   UNL     1      -4.720   1.567  -1.739  0.00  0.00    +0.003 A 
ATOM     13  C   UNL     1      -5.826   1.358  -2.593  0.00  0.00    +0.120 A 
ATOM     14  C   UNL     1      -6.625   0.218  -2.440  0.00  0.00    -0.020 A 
ATOM     15  C   UNL     1      -6.344  -0.712  -1.442  0.00  0.00    -0.058 A 
ATOM     16  C   UNL     1      -5.271  -0.506  -0.576  0.00  0.00    -0.049 A 
ATOM     17  C   UNL     1      -4.459   0.634  -0.701  0.00  0.00    +0.043 A 
ATOM     18  H   UNL     1      -7.469   0.052  -3.098  0.00  0.00    +0.065 HD
ATOM     19  H   UNL     1      -6.967  -1.589  -1.330  0.00  0.00    +0.062 HD
ATOM     20  H   UNL     1      -5.090  -1.228   0.211  0.00  0.00    +0.063 HD
BRANCH  12  21
ATOM     21  C   UNL     1      -3.843   2.781  -1.935  0.00  0.00    -0.036 C 
ATOM     22  H   UNL     1      -2.774   2.517  -1.790  0.00  0.00    +0.028 HD
ATOM     23  H   UNL     1      -4.132   3.569  -1.208  0.00  0.00    +0.028 HD
ATOM     24  H   UNL     1      -3.932   3.195  -2.960  0.00  0.00    +0.028 HD
ENDBRANCH  12  21
BRANCH  13  25
ATOM     25  O   UNL     1      -6.129   2.281  -3.594  0.00  0.00    -0.506 OA
ATOM     26  H   UNL     1      -6.917   2.151  -4.217  0.00  0.00    +0.292 HD
ENDBRANCH  13  25
ENDBRANCH   8  17
ENDBRANCH   6  10
BRANCH   6  27
ATOM     27  C   UNL     1      -0.987  -1.506   2.146  0.00  0.00    -0.009 C 
ATOM     28  H   UNL     1      -0.780  -2.229   1.329  0.00  0.00    +0.033 HD
ATOM     29  H   UNL     1      -0.050  -1.404   2.737  0.00  0.00    +0.033 HD
BRANCH  27  30
ATOM     30  C   UNL     1      -2.071  -2.056   3.040  0.00  0.00    -0.046 A 
ATOM     31  C   UNL     1      -2.165  -1.634   4.377  0.00  0.00    -0.059 A 
ATOM     32  C   UNL     1      -3.192  -2.113   5.196  0.00  0.00    -0.062 A 
ATOM     33  C   UNL     1      -4.134  -3.010   4.686  0.00  0.00    -0.062 A 
ATOM     34  C   UNL     1      -4.053  -3.429   3.356  0.00  0.00    -0.062 A 
ATOM     35  C   UNL     1      -3.027  -2.953   2.533  0.00  0.00    -0.059 A 
ATOM     36  H   UNL     1      -1.447  -0.931   4.781  0.00  0.00    +0.062 HD
ATOM     37  H   UNL     1      -3.259  -1.786   6.226  0.00  0.00    +0.062 HD
ATOM     38  H   UNL     1      -4.929  -3.378   5.322  0.00  0.00    +0.062 HD
ATOM     39  H   UNL     1      -4.786  -4.120   2.960  0.00  0.00    +0.062 HD
ATOM     40  H   UNL     1      -2.981  -3.282   1.502  0.00  0.00    +0.062 HD
ENDBRANCH  27  30
ENDBRANCH   6  27
ENDBRANCH   3   6
ENDBRANCH   1   3
BRANCH   1  41
ATOM     41  O   UNL     1       0.856  -1.260  -0.273  0.00  0.00    -0.390 OA
ATOM     42  H   UNL     1       1.551  -1.179   0.431  0.00  0.00    +0.210 HD
ENDBRANCH   1  41
BRANCH   1  43
ATOM     43  C   UNL     1       1.218   0.972  -1.205  0.00  0.00    +0.053 C 
ATOM     44  H   UNL     1       0.746   1.979  -1.196  0.00  0.00    +0.053 HD
BRANCH  43  45
ATOM     45  N   UNL     1       2.529   1.048  -0.545  0.00  0.00    -0.306 N 
ATOM     46  C   UNL     1       2.878   2.104   0.365  0.00  0.00    +0.245 C 
ATOM     47  O   UNL     1       2.085   3.066   0.557  0.00  0.00    -0.270 OA
ATOM     48  H   UNL     1       3.158   0.217  -0.592  0.00  0.00    +0.149 HD
BRANCH  46  49
ATOM     49  C   UNL     1       4.134   2.044   1.143  0.00  0.00    +0.043 A 
ATOM     50  C   UNL     1       4.057   2.242   2.532  0.00  0.00    -0.049 A 
ATOM     51  C   UNL     1       5.198   2.151   3.328  0.00  0.00    -0.058 A 
ATOM     52  C   UNL     1       6.432   1.861   2.750  0.00  0.00    -0.020 A 
ATOM     53  C   UNL     1       6.540   1.680   1.366  0.00  0.00    +0.120 A 
ATOM     54  C   UNL     1       5.398   1.796   0.544  0.00  0.00    +0.003 A 
ATOM     55  H   UNL     1       3.104   2.445   3.005  0.00  0.00    +0.063 HD
ATOM     56  H   UNL     1       5.123   2.295   4.398  0.00  0.00    +0.062 HD
ATOM     57  H   UNL     1       7.308   1.781   3.381  0.00  0.00    +0.065 HD
BRANCH  54  58
ATOM     58  C   UNL     1       5.557   1.640  -0.949  0.00  0.00    -0.036 C 
ATOM     59  H   UNL     1       4.756   2.169  -1.506  0.00  0.00    +0.028 HD
ATOM     60  H   UNL     1       5.547   0.562  -1.210  0.00  0.00    +0.028 HD
ATOM     61  H   UNL     1       6.518   2.080  -1.289  0.00  0.00    +0.028 HD
ENDBRANCH  54  58
BRANCH  53  62
ATOM     62  O   UNL     1       7.783   1.388   0.804  0.00  0.00    -0.506 OA
ATOM     63  H   UNL     1       8.617   1.301   1.373  0.00  0.00    +0.292 HD
ENDBRANCH  53  62
ENDBRANCH  46  49
ENDBRANCH  43  45
BRANCH  43  64
ATOM     64  C   UNL     1       1.371   0.638  -2.708  0.00  0.00    -0.007 C 
ATOM     65  H   UNL     1       0.375   0.712  -3.199  0.00  0.00    +0.033 HD
ATOM     66  H   UNL     1       2.001   1.422  -3.183  0.00  0.00    +0.033 HD
BRANCH  64  67
ATOM     67  C   UNL     1       1.968  -0.719  -2.995  0.00  0.00    -0.046 A 
ATOM     68  C   UNL     1       3.360  -0.871  -3.122  0.00  0.00    -0.059 A 
ATOM     69  C   UNL     1       3.912  -2.129  -3.380  0.00  0.00    -0.062 A 
ATOM     70  C   UNL     1       3.081  -3.243  -3.524  0.00  0.00    -0.062 A 
ATOM     71  C   UNL     1       1.695  -3.099  -3.416  0.00  0.00    -0.062 A 
ATOM     72  C   UNL     1       1.139  -1.843  -3.158  0.00  0.00    -0.059 A 
ATOM     73  H   UNL     1       4.014  -0.015  -3.027  0.00  0.00    +0.062 HD
ATOM     74  H   UNL     1       4.985  -2.239  -3.472  0.00  0.00    +0.062 HD
ATOM     75  H   UNL     1       3.510  -4.216  -3.724  0.00  0.00    +0.062 HD
ATOM     76  H   UNL     1       1.052  -3.961  -3.533  0.00  0.00    +0.062 HD
ATOM     77  H   UNL     1       0.063  -1.746  -3.076  0.00  0.00    +0.062 HD
ENDBRANCH  64  67
ENDBRANCH  43  64
ENDBRANCH   1  43
TORSDOF 16
