REMARK  Name = 
REMARK  16 active torsions:
REMARK  status: ('A' for Active; 'I' for Inactive)
REMARK    1  A    between atoms: C_1  and  C_2
REMARK    2  A    between atoms: C_3  and  O_4
REMARK    3  A    between atoms: C_8  and  C_9
REMARK    4  A    between atoms: N_11  and  C_12
REMARK    5  A    between atoms: C_12  and  C_13
REMARK    6  A    between atoms: C_12  and  C_35
REMARK    7  A    between atoms: C_13  and  C_14
REMARK    8  A    between atoms: C_14  and  O_15
REMARK    9  A    between atoms: C_14  and  C_16
REMARK   10  A    between atoms: C_16  and  C_17
REMARK   11  A    between atoms: C_16  and  N_24
REMARK   12  A    between atoms: C_17  and  C_18
REMARK   13  A    between atoms: C_25  and  C_27
REMARK   14  A    between atoms: C_31  and  O_32
REMARK   15  A    between atoms: C_33  and  C_34
REMARK   16  A    between atoms: C_35  and  C_36
REMARK                            x       y       z     vdW  Elec       q    Type
REMARK                         _______ _______ _______ _____ _____    ______ ____
ROOT
ATOM      1  C   UNL     1      -0.110  -1.012  -1.125  0.00  0.00    +0.076 C 
ATOM      2  H   UNL     1       0.194  -2.067  -1.310  0.00  0.00    +0.061 HD
ENDROOT
BRANCH   1   3
ATOM      3  C   UNL     1       0.327  -0.635   0.306  0.00  0.00    -0.006 C 
ATOM      4  H   UNL     1       0.127   0.449   0.451  0.00  0.00    +0.031 HD
ATOM      5  H   UNL     1      -0.303  -1.171   1.050  0.00  0.00    +0.031 HD
BRANCH   3   6
ATOM      6  C   UNL     1       1.828  -0.919   0.575  0.00  0.00    +0.030 C 
ATOM      7  H   UNL     1       2.390  -0.966  -0.385  0.00  0.00    +0.050 HD
BRANCH   6  10
ATOM      8  C   UNL     1       2.892   1.380   0.805  0.00  0.00    +0.245 C 
ATOM      9  O   UNL     1       2.898   1.520  -0.449  0.00  0.00    -0.270 OA
ATOM     10  N   UNL     1       2.387   0.167   1.387  0.00  0.00    -0.308 N 
ATOM     11  H   UNL     1       2.248   0.134   2.423  0.00  0.00    +0.149 HD
BRANCH   8  17
ATOM     12  C   UNL     1       3.180   3.837   1.403  0.00  0.00    +0.003 A 
ATOM     13  C   UNL     1       3.769   4.816   2.234  0.00  0.00    +0.120 A 
ATOM     14  C   UNL     1       4.548   4.431   3.332  0.00  0.00    -0.020 A 
ATOM     15  C   UNL     1       4.758   3.083   3.607  0.00  0.00    -0.058 A 
ATOM     16  C   UNL     1       4.205   2.105   2.783  0.00  0.00    -0.049 A 
ATOM     17  C   UNL     1       3.423   2.462   1.670  0.00  0.00    +0.043 A 
ATOM     18  H   UNL     1       4.994   5.180   3.973  0.00  0.00    +0.065 HD
ATOM     19  H   UNL     1       5.365   2.793   4.456  0.00  0.00    +0.062 HD
ATOM     20  H   UNL     1       4.410   1.064   3.002  0.00  0.00    +0.063 HD
BRANCH  12  21
ATOM     21  C   UNL     1       2.317   4.269   0.242  0.00  0.00    -0.036 C 
ATOM     22  H   UNL     1       1.435   3.603   0.147  0.00  0.00    +0.028 HD
ATOM     23  H   UNL     1       1.923   5.298   0.378  0.00  0.00    +0.028 HD
ATOM     24  H   UNL     1       2.910   4.236  -0.695  0.00  0.00    +0.028 HD
ENDBRANCH  12  21
BRANCH  13  25
ATOM     25  O   UNL     1       3.578   6.173   1.970  0.00  0.00    -0.506 OA
ATOM     26  H   UNL     1       3.990   6.892   2.553  0.00  0.00    +0.292 HD
ENDBRANCH  13  25
ENDBRANCH   8  17
ENDBRANCH   6  10
BRANCH   6  27
ATOM     27  C   UNL     1       2.052  -2.257   1.312  0.00  0.00    -0.009 C 
ATOM     28  H   UNL     1       3.126  -2.340   1.590  0.00  0.00    +0.033 HD
ATOM     29  H   UNL     1       1.480  -2.265   2.267  0.00  0.00    +0.033 HD
BRANCH  27  30
ATOM     30  C   UNL     1       1.685  -3.453   0.471  0.00  0.00    -0.046 A 
ATOM     31  C   UNL     1       0.471  -4.129   0.684  0.00  0.00    -0.059 A 
ATOM     32  C   UNL     1       0.139  -5.240  -0.098  0.00  0.00    -0.062 A 
ATOM     33  C   UNL     1       1.013  -5.680  -1.095  0.00  0.00    -0.062 A 
ATOM     34  C   UNL     1       2.211  -5.001  -1.327  0.00  0.00    -0.062 A 
ATOM     35  C   UNL     1       2.548  -3.890  -0.548  0.00  0.00    -0.059 A 
ATOM     36  H   UNL     1      -0.215  -3.798   1.453  0.00  0.00    +0.062 HD
ATOM     37  H   UNL     1      -0.795  -5.760   0.071  0.00  0.00    +0.062 HD
ATOM     38  H   UNL     1       0.757  -6.544  -1.695  0.00  0.00    +0.062 HD
ATOM     39  H   UNL     1       2.881  -5.337  -2.107  0.00  0.00    +0.062 HD
ATOM     40  H   UNL     1       3.481  -3.373  -0.735  0.00  0.00    +0.062 HD
ENDBRANCH  27  30
ENDBRANCH   6  27
ENDBRANCH   3   6
ENDBRANCH   1   3
BRANCH   1  41
ATOM     41  O   UNL     1       0.524  -0.150  -2.038  0.00  0.00    -0.390 OA
ATOM     42  H   UNL     1       0.764  -0.689  -2.836  0.00  0.00    +0.210 HD
ENDBRANCH   1  41
BRANCH   1  43
ATOM     43  C   UNL     1      -1.650  -0.915  -1.278  0.00  0.00    +0.053 C 
ATOM     44  H   UNL     1      -2.118  -1.581  -0.520  0.00  0.00    +0.053 HD
BRANCH  43  45
ATOM     45  N   UNL     1      -2.091   0.469  -1.065  0.00  0.00    -0.306 N 
ATOM     46  C   UNL     1      -2.688   0.919   0.163  0.00  0.00    +0.245 C 
ATOM     47  O   UNL     1      -3.113   0.078   1.001  0.00  0.00    -0.270 OA
ATOM     48  H   UNL     1      -1.860   1.176  -1.799  0.00  0.00    +0.149 HD
BRANCH  46  49
ATOM     49  C   UNL     1      -2.772   2.368   0.467  0.00  0.00    +0.043 A 
ATOM     50  C   UNL     1      -1.681   3.186   0.123  0.00  0.00    -0.049 A 
ATOM     51  C   UNL     1      -1.681   4.544   0.437  0.00  0.00    -0.058 A 
ATOM     52  C   UNL     1      -2.765   5.106   1.106  0.00  0.00    -0.020 A 
ATOM     53  C   UNL     1      -3.869   4.318   1.454  0.00  0.00    +0.120 A 
ATOM     54  C   UNL     1      -3.895   2.946   1.120  0.00  0.00    +0.003 A 
ATOM     55  H   UNL     1      -0.812   2.768  -0.370  0.00  0.00    +0.063 HD
ATOM     56  H   UNL     1      -0.831   5.160   0.172  0.00  0.00    +0.062 HD
ATOM     57  H   UNL     1      -2.746   6.159   1.357  0.00  0.00    +0.065 HD
BRANCH  54  58
ATOM     58  C   UNL     1      -5.106   2.117   1.474  0.00  0.00    -0.036 C 
ATOM     59  H   UNL     1      -5.349   1.412   0.652  0.00  0.00    +0.028 HD
ATOM     60  H   UNL     1      -4.908   1.547   2.406  0.00  0.00    +0.028 HD
ATOM     61  H   UNL     1      -6.008   2.745   1.628  0.00  0.00    +0.028 HD
ENDBRANCH  54  58
BRANCH  53  62
ATOM     62  O   UNL     1      -4.940   4.900   2.133  0.00  0.00    -0.506 OA
ATOM     63  H   UNL     1      -4.943   5.882   2.382  0.00  0.00    +0.292 HD
ENDBRANCH  53  62
ENDBRANCH  46  49
ENDBRANCH  43  45
BRANCH  43  64
ATOM     64  C   UNL     1      -2.137  -1.386  -2.664  0.00  0.00    -0.007 C 
ATOM     65  H   UNL     1      -1.635  -0.802  -3.467  0.00  0.00    +0.033 HD
ATOM     66  H   UNL     1      -3.224  -1.168  -2.755  0.00  0.00    +0.033 HD
BRANCH  64  67
ATOM     67  C   UNL     1      -1.932  -2.865  -2.877  0.00  0.00    -0.046 A 
ATOM     68  C   UNL     1      -2.788  -3.792  -2.259  0.00  0.00    -0.059 A 
ATOM     69  C   UNL     1      -2.615  -5.162  -2.473  0.00  0.00    -0.062 A 
ATOM     70  C   UNL     1      -1.586  -5.617  -3.301  0.00  0.00    -0.062 A 
ATOM     71  C   UNL     1      -0.721  -4.703  -3.908  0.00  0.00    -0.062 A 
ATOM     72  C   UNL     1      -0.890  -3.331  -3.696  0.00  0.00    -0.059 A 
ATOM     73  H   UNL     1      -3.592  -3.451  -1.619  0.00  0.00    +0.062 HD
ATOM     74  H   UNL     1      -3.278  -5.872  -1.996  0.00  0.00    +0.062 HD
ATOM     75  H   UNL     1      -1.453  -6.679  -3.465  0.00  0.00    +0.062 HD
ATOM     76  H   UNL     1       0.082  -5.057  -4.541  0.00  0.00    +0.062 HD
ATOM     77  H   UNL     1      -0.213  -2.635  -4.176  0.00  0.00    +0.062 HD
ENDBRANCH  64  67
ENDBRANCH  43  64
ENDBRANCH   1  43
TORSDOF 16
