REMARK  Name = 
REMARK  14 active torsions:
REMARK  status: ('A' for Active; 'I' for Inactive)
REMARK    1  A    between atoms: C_1  and  C_2
REMARK    2  A    between atoms: C_2  and  C_3
REMARK    3  A    between atoms: C_2  and  C_4
REMARK    4  A    between atoms: C_2  and  N_5
REMARK    5  A    between atoms: C_6  and  C_8
REMARK    6  A    between atoms: C_13  and  C_14
REMARK    7  A    between atoms: C_14  and  C_15
REMARK    8  A    between atoms: C_15  and  O_16
REMARK    9  A    between atoms: C_15  and  C_17
REMARK   10  A    between atoms: C_17  and  C_18
REMARK   11  A    between atoms: C_17  and  N_30
REMARK   12  A    between atoms: C_18  and  S_19
REMARK   13  A    between atoms: S_19  and  C_20
REMARK   14  A    between atoms: C_31  and  C_33
REMARK                            x       y       z     vdW  Elec       q    Type
REMARK                         _______ _______ _______ _____ _____    ______ ____
ROOT
ATOM      1  C   UNL     1      -0.112   0.334   0.094  0.00  0.00    +0.059 C 
ATOM      2  H   UNL     1       0.231   0.430   1.149  0.00  0.00    +0.053 HD
ENDROOT
BRANCH   1   3
ATOM      3  N   UNL     1      -0.957   1.488  -0.239  0.00  0.00    -0.305 N 
ATOM      4  C   UNL     1      -1.940   2.006   0.670  0.00  0.00    +0.245 C 
ATOM      5  O   UNL     1      -1.957   1.619   1.870  0.00  0.00    -0.270 OA
ATOM      6  H   UNL     1      -0.894   1.907  -1.195  0.00  0.00    +0.149 HD
BRANCH   4   7
ATOM      7  C   UNL     1      -2.969   2.954   0.188  0.00  0.00    +0.047 A 
ATOM      8  C   UNL     1      -3.643   2.647  -1.004  0.00  0.00    -0.031 A 
ATOM      9  C   UNL     1      -4.660   3.479  -1.466  0.00  0.00    +0.029 A 
ATOM     10  N   UNL     1      -5.003   4.591  -0.769  0.00  0.00    -0.255 NA
ATOM     11  C   UNL     1      -4.372   4.938   0.383  0.00  0.00    +0.072 A 
ATOM     12  C   UNL     1      -4.756   6.105   1.054  0.00  0.00    -0.036 A 
ATOM     13  C   UNL     1      -4.099   6.491   2.223  0.00  0.00    -0.060 A 
ATOM     14  C   UNL     1      -3.050   5.720   2.724  0.00  0.00    -0.061 A 
ATOM     15  C   UNL     1      -2.656   4.551   2.066  0.00  0.00    -0.052 A 
ATOM     16  C   UNL     1      -3.323   4.131   0.895  0.00  0.00    +0.012 A 
ATOM     17  H   UNL     1      -3.400   1.750  -1.563  0.00  0.00    +0.064 HD
ATOM     18  H   UNL     1      -5.187   3.235  -2.379  0.00  0.00    +0.083 HD
ATOM     19  H   UNL     1      -5.561   6.718   0.666  0.00  0.00    +0.064 HD
ATOM     20  H   UNL     1      -4.398   7.396   2.737  0.00  0.00    +0.062 HD
ATOM     21  H   UNL     1      -2.533   6.032   3.623  0.00  0.00    +0.062 HD
ATOM     22  H   UNL     1      -1.821   3.999   2.472  0.00  0.00    +0.062 HD
ENDBRANCH   4   7
ENDBRANCH   1   3
BRANCH   1  23
ATOM     23  C   UNL     1      -0.943  -0.958  -0.012  0.00  0.00    +0.019 C 
ATOM     24  H   UNL     1      -1.777  -0.907   0.722  0.00  0.00    +0.040 HD
ATOM     25  H   UNL     1      -0.323  -1.841   0.254  0.00  0.00    +0.040 HD
BRANCH  23  26
ATOM     26  S   UNL     1      -1.635  -1.187  -1.690  0.00  0.00    -0.123 S 
BRANCH  26  27
ATOM     27  C   UNL     1      -2.675  -2.564  -1.207  0.00  0.00    +0.009 A 
ATOM     28  C   UNL     1      -2.184  -3.872  -1.280  0.00  0.00    -0.048 A 
ATOM     29  C   UNL     1      -2.990  -4.949  -0.901  0.00  0.00    -0.053 A 
ATOM     30  C   UNL     1      -4.299  -4.724  -0.448  0.00  0.00    -0.018 A 
ATOM     31  C   UNL     1      -5.118  -5.797  -0.064  0.00  0.00    -0.054 A 
ATOM     32  C   UNL     1      -6.420  -5.560   0.386  0.00  0.00    -0.061 A 
ATOM     33  C   UNL     1      -6.913  -4.254   0.457  0.00  0.00    -0.061 A 
ATOM     34  C   UNL     1      -6.108  -3.176   0.077  0.00  0.00    -0.054 A 
ATOM     35  C   UNL     1      -4.799  -3.400  -0.377  0.00  0.00    -0.017 A 
ATOM     36  C   UNL     1      -3.980  -2.327  -0.760  0.00  0.00    -0.041 A 
ATOM     37  H   UNL     1      -1.175  -4.055  -1.626  0.00  0.00    +0.063 HD
ATOM     38  H   UNL     1      -2.592  -5.955  -0.963  0.00  0.00    +0.062 HD
ATOM     39  H   UNL     1      -4.753  -6.816  -0.112  0.00  0.00    +0.062 HD
ATOM     40  H   UNL     1      -7.049  -6.390   0.682  0.00  0.00    +0.062 HD
ATOM     41  H   UNL     1      -7.922  -4.077   0.806  0.00  0.00    +0.062 HD
ATOM     42  H   UNL     1      -6.506  -2.170   0.139  0.00  0.00    +0.062 HD
ATOM     43  H   UNL     1      -4.350  -1.310  -0.708  0.00  0.00    +0.063 HD
ENDBRANCH  26  27
ENDBRANCH  23  26
ENDBRANCH   1  23
BRANCH   1  44
ATOM     44  C   UNL     1       1.155   0.299  -0.806  0.00  0.00    +0.078 C 
ATOM     45  H   UNL     1       0.833   0.306  -1.871  0.00  0.00    +0.062 HD
BRANCH  44  46
ATOM     46  C   UNL     1       2.051   1.535  -0.571  0.00  0.00    +0.001 C 
ATOM     47  H   UNL     1       1.456   2.462  -0.720  0.00  0.00    +0.034 HD
ATOM     48  H   UNL     1       2.383   1.566   0.484  0.00  0.00    +0.034 HD
BRANCH  46  54
ATOM     49  C   UNL     1       4.475   0.950  -1.233  0.00  0.00    +0.040 A 
ATOM     50  C   UNL     1       5.471   0.904  -2.223  0.00  0.00    -0.049 A 
ATOM     51  C   UNL     1       5.247   1.455  -3.485  0.00  0.00    -0.061 A 
ATOM     52  C   UNL     1       4.023   2.050  -3.780  0.00  0.00    -0.061 A 
ATOM     53  C   UNL     1       3.015   2.093  -2.815  0.00  0.00    -0.058 A 
ATOM     54  C   UNL     1       3.223   1.552  -1.532  0.00  0.00    -0.033 A 
ATOM     55  H   UNL     1       6.433   0.451  -2.011  0.00  0.00    +0.063 HD
ATOM     56  H   UNL     1       6.026   1.418  -4.237  0.00  0.00    +0.062 HD
ATOM     57  H   UNL     1       3.849   2.470  -4.762  0.00  0.00    +0.062 HD
ATOM     58  H   UNL     1       2.062   2.537  -3.075  0.00  0.00    +0.062 HD
BRANCH  49  60
ATOM     59  N   UNL     1       5.264  -0.991   0.173  0.00  0.00    -0.307 N 
ATOM     60  C   UNL     1       4.782   0.363   0.087  0.00  0.00    +0.245 C 
ATOM     61  O   UNL     1       4.656   1.068   1.123  0.00  0.00    -0.270 OA
ATOM     62  H   UNL     1       5.316  -1.526  -0.724  0.00  0.00    +0.150 HD
BRANCH  59  63
ATOM     63  C   UNL     1       5.668  -1.671   1.420  0.00  0.00    +0.026 C 
BRANCH  63  64
ATOM     64  C   UNL     1       6.835  -0.914   2.085  0.00  0.00    -0.044 C 
ATOM     65  H   UNL     1       7.666  -0.776   1.361  0.00  0.00    +0.025 HD
ATOM     66  H   UNL     1       7.220  -1.481   2.961  0.00  0.00    +0.025 HD
ATOM     67  H   UNL     1       6.519   0.085   2.449  0.00  0.00    +0.025 HD
ENDBRANCH  63  64
BRANCH  63  68
ATOM     68  C   UNL     1       4.473  -1.770   2.387  0.00  0.00    -0.044 C 
ATOM     69  H   UNL     1       4.751  -2.350   3.293  0.00  0.00    +0.025 HD
ATOM     70  H   UNL     1       4.133  -0.769   2.721  0.00  0.00    +0.025 HD
ATOM     71  H   UNL     1       3.619  -2.282   1.892  0.00  0.00    +0.025 HD
ENDBRANCH  63  68
BRANCH  63  72
ATOM     72  C   UNL     1       6.143  -3.099   1.082  0.00  0.00    -0.044 C 
ATOM     73  H   UNL     1       7.007  -3.066   0.383  0.00  0.00    +0.025 HD
ATOM     74  H   UNL     1       5.325  -3.675   0.596  0.00  0.00    +0.025 HD
ATOM     75  H   UNL     1       6.456  -3.643   1.999  0.00  0.00    +0.025 HD
ENDBRANCH  63  72
ENDBRANCH  59  63
ENDBRANCH  49  60
ENDBRANCH  46  54
ENDBRANCH  44  46
BRANCH  44  76
ATOM     76  O   UNL     1       1.890  -0.881  -0.592  0.00  0.00    -0.390 OA
ATOM     77  H   UNL     1       2.143  -0.903   0.368  0.00  0.00    +0.210 HD
ENDBRANCH  44  76
ENDBRANCH   1  44
TORSDOF 14
