REMARK  Name = 
REMARK  10 active torsions:
REMARK  status: ('A' for Active; 'I' for Inactive)
REMARK    1  A    between atoms: C_1  and  C_2
REMARK    2  A    between atoms: C_2  and  C_3
REMARK    3  A    between atoms: C_3  and  C_4
REMARK    4  A    between atoms: C_3  and  C_25
REMARK    5  A    between atoms: C_8  and  N_9
REMARK    6  A    between atoms: C_10  and  C_12
REMARK    7  A    between atoms: C_12  and  C_13
REMARK    8  A    between atoms: C_13  and  N_14
REMARK    9  A    between atoms: N_14  and  C_15
REMARK   10  A    between atoms: C_26  and  O_27
REMARK                            x       y       z     vdW  Elec       q    Type
REMARK                         _______ _______ _______ _____ _____    ______ ____
ROOT
ATOM      1  C   UNL     1      -2.156  -0.687  -1.384  0.00  0.00    -0.038 A 
ATOM      2  C   UNL     1      -1.625  -0.436  -2.662  0.00  0.00    -0.058 A 
ATOM      3  C   UNL     1      -0.576  -1.211  -3.157  0.00  0.00    -0.060 A 
ATOM      4  C   UNL     1      -0.031  -2.237  -2.383  0.00  0.00    -0.040 A 
ATOM      5  C   UNL     1      -0.553  -2.518  -1.105  0.00  0.00    +0.034 A 
ATOM      6  C   UNL     1      -1.607  -1.731  -0.613  0.00  0.00    -0.037 A 
ATOM      7  H   UNL     1      -2.018   0.365  -3.276  0.00  0.00    +0.062 HD
ATOM      8  H   UNL     1      -0.165  -1.001  -4.138  0.00  0.00    +0.062 HD
ATOM      9  H   UNL     1       0.807  -2.786  -2.787  0.00  0.00    +0.064 HD
ATOM     10  H   UNL     1      -1.980  -1.931   0.380  0.00  0.00    +0.064 HD
ENDROOT
BRANCH   5  11
ATOM     11  N   UNL     1       0.004  -3.543  -0.256  0.00  0.00    -0.285 N 
ATOM     12  C   UNL     1       1.163  -4.322  -0.576  0.00  0.00    +0.218 C 
ATOM     13  O   UNL     1       1.243  -4.918  -1.684  0.00  0.00    -0.275 OA
ATOM     14  H   UNL     1      -0.357  -3.622   0.723  0.00  0.00    +0.155 HD
BRANCH  12  15
ATOM     15  C   UNL     1       2.284  -4.439   0.419  0.00  0.00    +0.037 C 
ATOM     16  H   UNL     1       2.607  -5.501   0.466  0.00  0.00    +0.037 HD
ATOM     17  H   UNL     1       1.935  -4.168   1.435  0.00  0.00    +0.037 HD
BRANCH  15  18
ATOM     18  C   UNL     1       3.495  -3.573   0.023  0.00  0.00    +0.005 C 
ATOM     19  H   UNL     1       3.857  -3.904  -0.975  0.00  0.00    +0.043 HD
ATOM     20  H   UNL     1       4.332  -3.758   0.734  0.00  0.00    +0.043 HD
BRANCH  18  21
ATOM     21  N   UNL     1       3.196  -2.131  -0.049  0.00  0.00    -0.306 NA
ATOM     22  H   UNL     1       2.359  -1.942  -0.648  0.00  0.00    +0.123 HD
BRANCH  21  23
ATOM     23  C   UNL     1       3.088  -1.476   1.267  0.00  0.00    +0.052 C 
ATOM     24  C   UNL     1       1.650  -1.309   1.712  0.00  0.00    -0.062 C 
ATOM     25  C   UNL     1       1.306  -0.029   1.809  0.00  0.00    -0.056 C 
ATOM     26  C   UNL     1       2.447   0.781   1.454  0.00  0.00    -0.020 A 
ATOM     27  C   UNL     1       2.559   2.168   1.403  0.00  0.00    -0.054 A 
ATOM     28  C   UNL     1       3.795   2.718   1.034  0.00  0.00    -0.061 A 
ATOM     29  C   UNL     1       4.884   1.878   0.727  0.00  0.00    -0.061 A 
ATOM     30  C   UNL     1       4.740   0.480   0.782  0.00  0.00    -0.056 A 
ATOM     31  C   UNL     1       3.501  -0.045   1.150  0.00  0.00    -0.020 A 
ATOM     32  H   UNL     1       3.692  -1.981   2.056  0.00  0.00    +0.055 HD
ATOM     33  H   UNL     1       0.983  -2.116   1.969  0.00  0.00    +0.059 HD
ATOM     34  H   UNL     1       0.342   0.331   2.135  0.00  0.00    +0.062 HD
ATOM     35  H   UNL     1       1.722   2.809   1.646  0.00  0.00    +0.062 HD
ATOM     36  H   UNL     1       3.918   3.794   0.997  0.00  0.00    +0.062 HD
ATOM     37  H   UNL     1       5.832   2.312   0.442  0.00  0.00    +0.062 HD
ATOM     38  H   UNL     1       5.568  -0.173   0.540  0.00  0.00    +0.062 HD
ENDBRANCH  21  23
ENDBRANCH  18  21
ENDBRANCH  15  18
ENDBRANCH  12  15
ENDBRANCH   5  11
BRANCH   1  39
ATOM     39  C   UNL     1      -3.241   0.227  -0.835  0.00  0.00    +0.019 C 
ATOM     40  H   UNL     1      -3.676   0.789  -1.692  0.00  0.00    +0.040 HD
BRANCH  39  41
ATOM     41  C   UNL     1      -2.626   1.266   0.109  0.00  0.00    +0.087 A 
ATOM     42  C   UNL     1      -2.376   1.010   1.481  0.00  0.00    +0.292 A 
ATOM     43  O   UNL     1      -1.792   1.926   2.247  0.00  0.00    -0.425 OA
ATOM     44  C   UNL     1      -1.386   3.102   1.792  0.00  0.00    +0.143 A 
ATOM     45  C   UNL     1      -0.772   4.004   2.667  0.00  0.00    -0.019 A 
ATOM     46  C   UNL     1      -0.328   5.242   2.196  0.00  0.00    -0.058 A 
ATOM     47  C   UNL     1      -0.492   5.583   0.849  0.00  0.00    -0.061 A 
ATOM     48  C   UNL     1      -1.101   4.687  -0.035  0.00  0.00    -0.047 A 
ATOM     49  C   UNL     1      -1.559   3.439   0.433  0.00  0.00    +0.064 A 
ATOM     50  C   UNL     1      -2.181   2.505  -0.412  0.00  0.00    +0.200 A 
ATOM     51  O   UNL     1      -2.337   2.772  -1.636  0.00  0.00    -0.287 OA
ATOM     52  H   UNL     1      -0.631   3.739   3.708  0.00  0.00    +0.065 HD
ATOM     53  H   UNL     1       0.148   5.936   2.875  0.00  0.00    +0.062 HD
ATOM     54  H   UNL     1      -0.151   6.547   0.487  0.00  0.00    +0.062 HD
ATOM     55  H   UNL     1      -1.215   4.973  -1.075  0.00  0.00    +0.063 HD
BRANCH  42  56
ATOM     56  O   UNL     1      -2.709  -0.207   2.064  0.00  0.00    -0.480 OA
ATOM     57  H   UNL     1      -2.498  -0.389   3.041  0.00  0.00    +0.295 HD
ENDBRANCH  42  56
ENDBRANCH  39  41
BRANCH  39  58
ATOM     58  C   UNL     1      -4.459  -0.533  -0.253  0.00  0.00    -0.045 C 
ATOM     59  H   UNL     1      -4.162  -1.281   0.508  0.00  0.00    +0.027 HD
ATOM     60  H   UNL     1      -5.145   0.196   0.234  0.00  0.00    +0.027 HD
BRANCH  58  61
ATOM     61  C   UNL     1      -5.240  -1.278  -1.340  0.00  0.00    -0.064 C 
ATOM     62  H   UNL     1      -6.098  -1.812  -0.881  0.00  0.00    +0.023 HD
ATOM     63  H   UNL     1      -5.632  -0.564  -2.097  0.00  0.00    +0.023 HD
ATOM     64  H   UNL     1      -4.588  -2.026  -1.844  0.00  0.00    +0.023 HD
ENDBRANCH  58  61
ENDBRANCH  39  58
ENDBRANCH   1  39
TORSDOF 10
