REMARK  Name = 
REMARK  18 active torsions:
REMARK  status: ('A' for Active; 'I' for Inactive)
REMARK    1  A    between atoms: C_1  and  C_2
REMARK    2  A    between atoms: C_2  and  C_3
REMARK    3  A    between atoms: C_2  and  C_4
REMARK    4  A    between atoms: C_4  and  N_5
REMARK    5  A    between atoms: C_4  and  C_41
REMARK    6  A    between atoms: C_6  and  C_8
REMARK    7  A    between atoms: C_8  and  C_9
REMARK    8  A    between atoms: C_11  and  C_12
REMARK    9  A    between atoms: C_12  and  C_13
REMARK   10  A    between atoms: C_12  and  N_20
REMARK   11  A    between atoms: C_13  and  C_14
REMARK   12  A    between atoms: C_21  and  C_23
REMARK   13  A    between atoms: C_23  and  C_24
REMARK   14  A    between atoms: C_23  and  N_28
REMARK   15  A    between atoms: C_24  and  C_25
REMARK   16  A    between atoms: C_29  and  C_31
REMARK   17  A    between atoms: C_41  and  C_42
REMARK   18  A    between atoms: C_41  and  C_43
REMARK                            x       y       z     vdW  Elec       q    Type
REMARK                         _______ _______ _______ _____ _____    ______ ____
ROOT
ATOM      1  C   UNL     1       0.357  -0.576   1.244  0.00  0.00    +0.056 C 
ATOM      2  H   UNL     1       1.193  -0.895   1.905  0.00  0.00    +0.053 HD
ENDROOT
BRANCH   1   5
ATOM      3  C   UNL     1      -1.210  -1.921  -0.464  0.00  0.00    +0.095 C 
ATOM      4  O   UNL     1      -1.716  -1.883   0.850  0.00  0.00    -0.366 OA
ATOM      5  C   UNL     1      -0.311  -1.882   0.733  0.00  0.00    +0.104 C 
ATOM      6  H   UNL     1      -1.388  -2.915  -0.926  0.00  0.00    +0.063 HD
ATOM      7  H   UNL     1       0.116  -2.854   1.060  0.00  0.00    +0.064 HD
BRANCH   3   8
ATOM      8  C   UNL     1      -1.629  -0.666  -1.237  0.00  0.00    +0.053 C 
ATOM      9  H   UNL     1      -1.033  -0.609  -2.172  0.00  0.00    +0.038 HD
ATOM     10  H   UNL     1      -1.457   0.270  -0.678  0.00  0.00    +0.038 HD
BRANCH   8  12
ATOM     11  N   UNL     1      -4.064  -0.257  -0.646  0.00  0.00    -0.312 N 
ATOM     12  C   UNL     1      -3.086  -0.748  -1.575  0.00  0.00    +0.216 C 
ATOM     13  O   UNL     1      -3.444  -1.289  -2.657  0.00  0.00    -0.276 OA
ATOM     14  H   UNL     1      -3.722   0.210   0.225  0.00  0.00    +0.149 HD
BRANCH  11  15
ATOM     15  C   UNL     1      -5.509  -0.447  -0.833  0.00  0.00    +0.028 C 
ATOM     16  H   UNL     1      -5.704  -0.343  -1.925  0.00  0.00    +0.050 HD
BRANCH  15  17
ATOM     17  C   UNL     1      -6.287   0.737  -0.160  0.00  0.00    -0.028 C 
ATOM     18  H   UNL     1      -5.672   1.649  -0.343  0.00  0.00    +0.031 HD
BRANCH  17  19
ATOM     19  C   UNL     1      -6.442   0.635   1.362  0.00  0.00    -0.061 C 
ATOM     20  H   UNL     1      -6.748   1.621   1.772  0.00  0.00    +0.023 HD
ATOM     21  H   UNL     1      -7.230  -0.096   1.635  0.00  0.00    +0.023 HD
ATOM     22  H   UNL     1      -5.482   0.355   1.842  0.00  0.00    +0.023 HD
ENDBRANCH  17  19
BRANCH  17  23
ATOM     23  C   UNL     1      -7.640   1.042  -0.825  0.00  0.00    -0.061 C 
ATOM     24  H   UNL     1      -7.533   1.096  -1.929  0.00  0.00    +0.023 HD
ATOM     25  H   UNL     1      -8.013   2.029  -0.476  0.00  0.00    +0.023 HD
ATOM     26  H   UNL     1      -8.409   0.288  -0.572  0.00  0.00    +0.023 HD
ENDBRANCH  17  23
ENDBRANCH  15  17
BRANCH  15  27
ATOM     27  C   UNL     1      -5.899  -1.920  -0.468  0.00  0.00    -0.028 C 
ATOM     28  H   UNL     1      -5.356  -2.559  -1.200  0.00  0.00    +0.031 HD
BRANCH  27  29
ATOM     29  C   UNL     1      -5.426  -2.400   0.917  0.00  0.00    -0.061 C 
ATOM     30  H   UNL     1      -6.072  -2.026   1.734  0.00  0.00    +0.023 HD
ATOM     31  H   UNL     1      -4.379  -2.097   1.115  0.00  0.00    +0.023 HD
ATOM     32  H   UNL     1      -5.463  -3.509   0.955  0.00  0.00    +0.023 HD
ENDBRANCH  27  29
BRANCH  27  33
ATOM     33  C   UNL     1      -7.384  -2.240  -0.675  0.00  0.00    -0.061 C 
ATOM     34  H   UNL     1      -8.002  -1.819   0.144  0.00  0.00    +0.023 HD
ATOM     35  H   UNL     1      -7.533  -3.341  -0.674  0.00  0.00    +0.023 HD
ATOM     36  H   UNL     1      -7.734  -1.849  -1.653  0.00  0.00    +0.023 HD
ENDBRANCH  27  33
ENDBRANCH  15  27
ENDBRANCH  11  15
ENDBRANCH   8  12
ENDBRANCH   3   8
ENDBRANCH   1   5
BRANCH   1  37
ATOM     37  N   UNL     1       0.959   0.178   0.139  0.00  0.00    -0.308 N 
ATOM     38  C   UNL     1       2.024  -0.358  -0.662  0.00  0.00    +0.234 C 
ATOM     39  O   UNL     1       2.527  -1.480  -0.380  0.00  0.00    -0.274 OA
ATOM     40  H   UNL     1       0.641   1.156  -0.048  0.00  0.00    +0.149 HD
BRANCH  38  41
ATOM     41  C   UNL     1       2.554   0.419  -1.837  0.00  0.00    +0.108 C 
ATOM     42  H   UNL     1       2.002   1.381  -1.926  0.00  0.00    +0.060 HD
BRANCH  41  43
ATOM     43  N   UNL     1       3.979   0.702  -1.633  0.00  0.00    -0.298 N 
ATOM     44  C   UNL     1       4.430   1.703  -0.705  0.00  0.00    +0.263 C 
ATOM     45  O   UNL     1       3.585   2.381  -0.059  0.00  0.00    -0.269 OA
ATOM     46  H   UNL     1       4.688   0.131  -2.149  0.00  0.00    +0.150 HD
BRANCH  44  47
ATOM     47  C   UNL     1       5.875   1.944  -0.502  0.00  0.00    +0.126 A 
ATOM     48  C   UNL     1       6.326   2.917   0.407  0.00  0.00    -0.031 A 
ATOM     49  C   UNL     1       7.697   3.122   0.579  0.00  0.00    -0.050 A 
ATOM     50  C   UNL     1       8.614   2.360  -0.153  0.00  0.00    +0.000 A 
ATOM     51  C   UNL     1       9.997   2.541  -0.005  0.00  0.00    -0.053 A 
ATOM     52  C   UNL     1      10.887   1.762  -0.752  0.00  0.00    -0.061 A 
ATOM     53  C   UNL     1      10.402   0.803  -1.648  0.00  0.00    -0.060 A 
ATOM     54  C   UNL     1       9.024   0.617  -1.802  0.00  0.00    -0.036 A 
ATOM     55  C   UNL     1       8.127   1.392  -1.058  0.00  0.00    +0.072 A 
ATOM     56  N   UNL     1       6.786   1.214  -1.204  0.00  0.00    -0.242 NA
ATOM     57  H   UNL     1       5.627   3.513   0.980  0.00  0.00    +0.064 HD
ATOM     58  H   UNL     1       8.038   3.873   1.281  0.00  0.00    +0.062 HD
ATOM     59  H   UNL     1      10.387   3.279   0.684  0.00  0.00    +0.062 HD
ATOM     60  H   UNL     1      11.954   1.901  -0.638  0.00  0.00    +0.062 HD
ATOM     61  H   UNL     1      11.095   0.203  -2.224  0.00  0.00    +0.062 HD
ATOM     62  H   UNL     1       8.657  -0.128  -2.497  0.00  0.00    +0.064 HD
ENDBRANCH  44  47
ENDBRANCH  41  43
BRANCH  41  63
ATOM     63  C   UNL     1       2.329  -0.375  -3.137  0.00  0.00    +0.051 C 
ATOM     64  H   UNL     1       2.924  -1.315  -3.123  0.00  0.00    +0.038 HD
ATOM     65  H   UNL     1       1.258  -0.660  -3.220  0.00  0.00    +0.038 HD
BRANCH  63  66
ATOM     66  C   UNL     1       2.699   0.441  -4.341  0.00  0.00    +0.213 C 
ATOM     67  N   UNL     1       1.795   1.418  -4.856  0.00  0.00    -0.329 N 
ATOM     68  O   UNL     1       3.826   0.285  -4.882  0.00  0.00    -0.276 OA
ATOM     69  H   UNL     1       0.864   1.570  -4.407  0.00  0.00    +0.145 HD
ATOM     70  H   UNL     1       2.058   1.994  -5.686  0.00  0.00    +0.145 HD
ENDBRANCH  63  66
ENDBRANCH  41  63
ENDBRANCH  38  41
ENDBRANCH   1  37
BRANCH   1  71
ATOM     71  C   UNL     1      -0.552   0.337   2.107  0.00  0.00    -0.007 C 
ATOM     72  H   UNL     1      -1.408   0.713   1.511  0.00  0.00    +0.033 HD
ATOM     73  H   UNL     1       0.030   1.234   2.413  0.00  0.00    +0.033 HD
BRANCH  71  74
ATOM     74  C   UNL     1      -1.046  -0.349   3.359  0.00  0.00    -0.046 A 
ATOM     75  C   UNL     1      -0.149  -0.671   4.393  0.00  0.00    -0.059 A 
ATOM     76  C   UNL     1      -0.607  -1.309   5.550  0.00  0.00    -0.062 A 
ATOM     77  C   UNL     1      -1.962  -1.624   5.688  0.00  0.00    -0.062 A 
ATOM     78  C   UNL     1      -2.862  -1.297   4.670  0.00  0.00    -0.062 A 
ATOM     79  C   UNL     1      -2.409  -0.658   3.513  0.00  0.00    -0.059 A 
ATOM     80  H   UNL     1       0.902  -0.428   4.303  0.00  0.00    +0.062 HD
ATOM     81  H   UNL     1       0.088  -1.558   6.341  0.00  0.00    +0.062 HD
ATOM     82  H   UNL     1      -2.314  -2.117   6.584  0.00  0.00    +0.062 HD
ATOM     83  H   UNL     1      -3.912  -1.537   4.779  0.00  0.00    +0.062 HD
ATOM     84  H   UNL     1      -3.121  -0.408   2.737  0.00  0.00    +0.062 HD
ENDBRANCH  71  74
ENDBRANCH   1  71
TORSDOF 18
