REMARK  Name = 
REMARK  16 active torsions:
REMARK  status: ('A' for Active; 'I' for Inactive)
REMARK    1  A    between atoms: C_1  and  C_2
REMARK    2  A    between atoms: C_3  and  O_4
REMARK    3  A    between atoms: C_8  and  C_9
REMARK    4  A    between atoms: N_11  and  C_12
REMARK    5  A    between atoms: C_12  and  C_13
REMARK    6  A    between atoms: C_12  and  C_35
REMARK    7  A    between atoms: C_13  and  C_14
REMARK    8  A    between atoms: C_14  and  O_15
REMARK    9  A    between atoms: C_14  and  C_16
REMARK   10  A    between atoms: C_16  and  C_17
REMARK   11  A    between atoms: C_16  and  N_24
REMARK   12  A    between atoms: C_17  and  C_18
REMARK   13  A    between atoms: C_25  and  C_27
REMARK   14  A    between atoms: C_31  and  O_32
REMARK   15  A    between atoms: C_33  and  C_34
REMARK   16  A    between atoms: C_35  and  C_36
REMARK                            x       y       z     vdW  Elec       q    Type
REMARK                         _______ _______ _______ _____ _____    ______ ____
ROOT
ATOM      1  C   UNL     1      -0.678  -0.559   0.239  0.00  0.00    +0.076 C 
ATOM      2  H   UNL     1      -0.716  -0.873   1.309  0.00  0.00    +0.061 HD
ENDROOT
BRANCH   1   3
ATOM      3  C   UNL     1       0.780  -0.171  -0.103  0.00  0.00    -0.006 C 
ATOM      4  H   UNL     1       0.802   0.276  -1.121  0.00  0.00    +0.031 HD
ATOM      5  H   UNL     1       1.130   0.600   0.612  0.00  0.00    +0.031 HD
BRANCH   3   6
ATOM      6  C   UNL     1       1.766  -1.363  -0.070  0.00  0.00    +0.030 C 
ATOM      7  H   UNL     1       1.339  -2.178  -0.696  0.00  0.00    +0.050 HD
BRANCH   6  10
ATOM      8  C   UNL     1       3.956  -0.005  -0.133  0.00  0.00    +0.245 C 
ATOM      9  O   UNL     1       3.612   0.706   0.849  0.00  0.00    -0.270 OA
ATOM     10  N   UNL     1       3.049  -0.980  -0.679  0.00  0.00    -0.308 N 
ATOM     11  H   UNL     1       3.328  -1.475  -1.556  0.00  0.00    +0.149 HD
BRANCH   8  17
ATOM     12  C   UNL     1       5.927   1.400  -0.915  0.00  0.00    +0.003 A 
ATOM     13  C   UNL     1       7.288   1.449  -1.315  0.00  0.00    +0.120 A 
ATOM     14  C   UNL     1       7.983   0.264  -1.572  0.00  0.00    -0.020 A 
ATOM     15  C   UNL     1       7.364  -0.971  -1.406  0.00  0.00    -0.058 A 
ATOM     16  C   UNL     1       6.048  -1.038  -0.959  0.00  0.00    -0.049 A 
ATOM     17  C   UNL     1       5.321   0.134  -0.690  0.00  0.00    +0.043 A 
ATOM     18  H   UNL     1       9.017   0.303  -1.893  0.00  0.00    +0.065 HD
ATOM     19  H   UNL     1       7.915  -1.882  -1.602  0.00  0.00    +0.062 HD
ATOM     20  H   UNL     1       5.604  -2.013  -0.795  0.00  0.00    +0.063 HD
BRANCH  12  21
ATOM     21  C   UNL     1       5.147   2.684  -0.746  0.00  0.00    -0.036 C 
ATOM     22  H   UNL     1       4.054   2.522  -0.836  0.00  0.00    +0.028 HD
ATOM     23  H   UNL     1       5.373   3.132   0.244  0.00  0.00    +0.028 HD
ATOM     24  H   UNL     1       5.400   3.405  -1.550  0.00  0.00    +0.028 HD
ENDBRANCH  12  21
BRANCH  13  25
ATOM     25  O   UNL     1       7.981   2.654  -1.459  0.00  0.00    -0.506 OA
ATOM     26  H   UNL     1       7.598   3.553  -1.200  0.00  0.00    +0.292 HD
ENDBRANCH  13  25
ENDBRANCH   8  17
ENDBRANCH   6  10
BRANCH   6  27
ATOM     27  C   UNL     1       1.968  -1.931   1.353  0.00  0.00    -0.009 C 
ATOM     28  H   UNL     1       1.013  -2.361   1.722  0.00  0.00    +0.033 HD
ATOM     29  H   UNL     1       2.243  -1.119   2.060  0.00  0.00    +0.033 HD
BRANCH  27  30
ATOM     30  C   UNL     1       3.011  -3.021   1.374  0.00  0.00    -0.046 A 
ATOM     31  C   UNL     1       4.304  -2.762   1.862  0.00  0.00    -0.059 A 
ATOM     32  C   UNL     1       5.280  -3.763   1.839  0.00  0.00    -0.062 A 
ATOM     33  C   UNL     1       4.973  -5.028   1.331  0.00  0.00    -0.062 A 
ATOM     34  C   UNL     1       3.690  -5.294   0.844  0.00  0.00    -0.062 A 
ATOM     35  C   UNL     1       2.712  -4.295   0.863  0.00  0.00    -0.059 A 
ATOM     36  H   UNL     1       4.560  -1.784   2.251  0.00  0.00    +0.062 HD
ATOM     37  H   UNL     1       6.275  -3.557   2.211  0.00  0.00    +0.062 HD
ATOM     38  H   UNL     1       5.730  -5.802   1.312  0.00  0.00    +0.062 HD
ATOM     39  H   UNL     1       3.454  -6.274   0.448  0.00  0.00    +0.062 HD
ATOM     40  H   UNL     1       1.724  -4.511   0.475  0.00  0.00    +0.062 HD
ENDBRANCH  27  30
ENDBRANCH   6  27
ENDBRANCH   3   6
ENDBRANCH   1   3
BRANCH   1  41
ATOM     41  O   UNL     1      -1.075  -1.622  -0.594  0.00  0.00    -0.390 OA
ATOM     42  H   UNL     1      -1.702  -2.187  -0.071  0.00  0.00    +0.210 HD
ENDBRANCH   1  41
BRANCH   1  43
ATOM     43  C   UNL     1      -1.659   0.626   0.042  0.00  0.00    +0.053 C 
ATOM     44  H   UNL     1      -1.534   0.999  -0.999  0.00  0.00    +0.053 HD
BRANCH  43  45
ATOM     45  N   UNL     1      -3.035   0.151   0.243  0.00  0.00    -0.306 N 
ATOM     46  C   UNL     1      -4.101   0.423  -0.682  0.00  0.00    +0.245 C 
ATOM     47  O   UNL     1      -3.852   0.985  -1.783  0.00  0.00    -0.270 OA
ATOM     48  H   UNL     1      -3.255  -0.347   1.135  0.00  0.00    +0.149 HD
BRANCH  46  49
ATOM     49  C   UNL     1      -5.501   0.071  -0.341  0.00  0.00    +0.043 A 
ATOM     50  C   UNL     1      -5.956   0.316   0.966  0.00  0.00    -0.049 A 
ATOM     51  C   UNL     1      -7.277   0.053   1.322  0.00  0.00    -0.058 A 
ATOM     52  C   UNL     1      -8.168  -0.452   0.379  0.00  0.00    -0.020 A 
ATOM     53  C   UNL     1      -7.741  -0.714  -0.928  0.00  0.00    +0.120 A 
ATOM     54  C   UNL     1      -6.399  -0.477  -1.298  0.00  0.00    +0.003 A 
ATOM     55  H   UNL     1      -5.295   0.738   1.712  0.00  0.00    +0.063 HD
ATOM     56  H   UNL     1      -7.616   0.256   2.330  0.00  0.00    +0.062 HD
ATOM     57  H   UNL     1      -9.195  -0.640   0.665  0.00  0.00    +0.065 HD
BRANCH  54  58
ATOM     58  C   UNL     1      -5.946  -0.794  -2.703  0.00  0.00    -0.036 C 
ATOM     59  H   UNL     1      -5.934   0.135  -3.309  0.00  0.00    +0.028 HD
ATOM     60  H   UNL     1      -6.613  -1.530  -3.197  0.00  0.00    +0.028 HD
ATOM     61  H   UNL     1      -4.931  -1.245  -2.693  0.00  0.00    +0.028 HD
ENDBRANCH  54  58
BRANCH  53  62
ATOM     62  O   UNL     1      -8.652  -1.212  -1.861  0.00  0.00    -0.506 OA
ATOM     63  H   UNL     1      -9.620  -1.389  -1.618  0.00  0.00    +0.292 HD
ENDBRANCH  53  62
ENDBRANCH  46  49
ENDBRANCH  43  45
BRANCH  43  64
ATOM     64  C   UNL     1      -1.375   1.795   1.011  0.00  0.00    -0.007 C 
ATOM     65  H   UNL     1      -1.351   1.419   2.058  0.00  0.00    +0.033 HD
ATOM     66  H   UNL     1      -0.380   2.238   0.797  0.00  0.00    +0.033 HD
BRANCH  64  67
ATOM     67  C   UNL     1      -2.404   2.889   0.874  0.00  0.00    -0.046 A 
ATOM     68  C   UNL     1      -3.443   3.011   1.812  0.00  0.00    -0.059 A 
ATOM     69  C   UNL     1      -4.429   3.989   1.649  0.00  0.00    -0.062 A 
ATOM     70  C   UNL     1      -4.384   4.852   0.550  0.00  0.00    -0.062 A 
ATOM     71  C   UNL     1      -3.354   4.738  -0.387  0.00  0.00    -0.062 A 
ATOM     72  C   UNL     1      -2.368   3.759  -0.229  0.00  0.00    -0.059 A 
ATOM     73  H   UNL     1      -3.497   2.342   2.662  0.00  0.00    +0.062 HD
ATOM     74  H   UNL     1      -5.230   4.075   2.371  0.00  0.00    +0.062 HD
ATOM     75  H   UNL     1      -5.149   5.607   0.424  0.00  0.00    +0.062 HD
ATOM     76  H   UNL     1      -3.322   5.404  -1.239  0.00  0.00    +0.062 HD
ATOM     77  H   UNL     1      -1.582   3.672  -0.969  0.00  0.00    +0.062 HD
ENDBRANCH  64  67
ENDBRANCH  43  64
ENDBRANCH   1  43
TORSDOF 16
