REMARK  Name = 
REMARK  7 active torsions:
REMARK  status: ('A' for Active; 'I' for Inactive)
REMARK    1  A    between atoms: O_1  and  C_2
REMARK    2  A    between atoms: C_14  and  C_15
REMARK    3  A    between atoms: C_15  and  C_16
REMARK    4  A    between atoms: C_15  and  C_19
REMARK    5  A    between atoms: C_23  and  N_24
REMARK    6  A    between atoms: N_24  and  S_25
REMARK    7  A    between atoms: S_25  and  C_28
REMARK                            x       y       z     vdW  Elec       q    Type
REMARK                         _______ _______ _______ _____ _____    ______ ____
ROOT
ATOM      1  C   UNL     1      -1.133   2.284   1.214  0.00  0.00    +0.022 C 
ATOM      2  H   UNL     1      -1.497   2.403   2.259  0.00  0.00    +0.040 HD
ENDROOT
BRANCH   1  15
ATOM      3  C   UNL     1      -2.357   0.062   1.456  0.00  0.00    +0.292 A 
ATOM      4  O   UNL     1      -2.724  -1.125   0.990  0.00  0.00    -0.429 OA
ATOM      5  C   UNL     1      -2.337  -1.608  -0.186  0.00  0.00    +0.116 A 
ATOM      6  C   UNL     1      -2.875  -2.962  -0.581  0.00  0.00    +0.006 C 
ATOM      7  C   UNL     1      -4.138  -2.862  -1.451  0.00  0.00    -0.046 C 
ATOM      8  C   UNL     1      -3.860  -2.545  -2.932  0.00  0.00    -0.053 C 
ATOM      9  C   UNL     1      -3.519  -1.062  -3.189  0.00  0.00    -0.053 C 
ATOM     10  C   UNL     1      -2.029  -0.811  -3.482  0.00  0.00    -0.049 C 
ATOM     11  C   UNL     1      -1.069  -1.312  -2.393  0.00  0.00    -0.021 C 
ATOM     12  C   UNL     1      -1.480  -0.843  -1.011  0.00  0.00    +0.038 A 
ATOM     13  C   UNL     1      -1.088   0.430  -0.558  0.00  0.00    +0.196 A 
ATOM     14  O   UNL     1      -0.357   1.155  -1.288  0.00  0.00    -0.287 OA
ATOM     15  C   UNL     1      -1.518   0.901   0.700  0.00  0.00    +0.087 A 
ATOM     16  H   UNL     1      -3.153  -3.498   0.353  0.00  0.00    +0.034 HD
ATOM     17  H   UNL     1      -2.109  -3.603  -1.059  0.00  0.00    +0.034 HD
ATOM     18  H   UNL     1      -4.850  -2.126  -1.019  0.00  0.00    +0.027 HD
ATOM     19  H   UNL     1      -4.645  -3.851  -1.413  0.00  0.00    +0.027 HD
ATOM     20  H   UNL     1      -4.790  -2.780  -3.495  0.00  0.00    +0.027 HD
ATOM     21  H   UNL     1      -3.078  -3.223  -3.337  0.00  0.00    +0.027 HD
ATOM     22  H   UNL     1      -4.090  -0.719  -4.079  0.00  0.00    +0.027 HD
ATOM     23  H   UNL     1      -3.855  -0.417  -2.348  0.00  0.00    +0.027 HD
ATOM     24  H   UNL     1      -1.760  -1.298  -4.445  0.00  0.00    +0.027 HD
ATOM     25  H   UNL     1      -1.879   0.283  -3.616  0.00  0.00    +0.027 HD
ATOM     26  H   UNL     1      -0.048  -0.941  -2.627  0.00  0.00    +0.032 HD
ATOM     27  H   UNL     1      -0.975  -2.412  -2.449  0.00  0.00    +0.032 HD
BRANCH   3  28
ATOM     28  O   UNL     1      -2.826   0.465   2.704  0.00  0.00    -0.480 OA
ATOM     29  H   UNL     1      -3.432  -0.137   3.248  0.00  0.00    +0.295 HD
ENDBRANCH   3  28
ENDBRANCH   1  15
BRANCH   1  30
ATOM     30  C   UNL     1       0.380   2.422   1.305  0.00  0.00    -0.038 A 
ATOM     31  C   UNL     1       1.139   3.160   0.373  0.00  0.00    -0.058 A 
ATOM     32  C   UNL     1       2.531   3.198   0.466  0.00  0.00    -0.060 A 
ATOM     33  C   UNL     1       3.188   2.495   1.476  0.00  0.00    -0.039 A 
ATOM     34  C   UNL     1       2.453   1.750   2.409  0.00  0.00    +0.048 A 
ATOM     35  C   UNL     1       1.054   1.730   2.327  0.00  0.00    -0.036 A 
ATOM     36  H   UNL     1       0.667   3.699  -0.436  0.00  0.00    +0.062 HD
ATOM     37  H   UNL     1       3.105   3.767  -0.255  0.00  0.00    +0.062 HD
ATOM     38  H   UNL     1       4.268   2.531   1.528  0.00  0.00    +0.064 HD
ATOM     39  H   UNL     1       0.491   1.137   3.038  0.00  0.00    +0.064 HD
BRANCH  34  40
ATOM     40  N   UNL     1       3.114   0.976   3.418  0.00  0.00    -0.216 N 
ATOM     41  H   UNL     1       2.599   0.744   4.297  0.00  0.00    +0.174 HD
BRANCH  40  42
ATOM     42  S   UNL     1       4.512   0.023   3.041  0.00  0.00    +0.073 S 
ATOM     43  O   UNL     1       5.739   0.878   3.191  0.00  0.00    -0.150 OA
ATOM     44  O   UNL     1       4.609  -1.133   3.996  0.00  0.00    -0.150 OA
BRANCH  42  45
ATOM     45  C   UNL     1       4.372  -0.604   1.387  0.00  0.00    +0.116 A 
ATOM     46  C   UNL     1       5.382  -0.284   0.465  0.00  0.00    -0.034 A 
ATOM     47  C   UNL     1       5.298  -0.704  -0.862  0.00  0.00    -0.059 A 
ATOM     48  C   UNL     1       4.205  -1.450  -1.295  0.00  0.00    -0.054 A 
ATOM     49  C   UNL     1       3.182  -1.790  -0.400  0.00  0.00    -0.016 A 
ATOM     50  C   UNL     1       2.088  -2.548  -0.845  0.00  0.00    -0.054 A 
ATOM     51  C   UNL     1       1.068  -2.896   0.039  0.00  0.00    -0.061 A 
ATOM     52  C   UNL     1       1.122  -2.482   1.368  0.00  0.00    -0.061 A 
ATOM     53  C   UNL     1       2.206  -1.732   1.830  0.00  0.00    -0.052 A 
ATOM     54  C   UNL     1       3.255  -1.370   0.957  0.00  0.00    +0.009 A 
ATOM     55  H   UNL     1       6.238   0.303   0.768  0.00  0.00    +0.064 HD
ATOM     56  H   UNL     1       6.084  -0.445  -1.559  0.00  0.00    +0.062 HD
ATOM     57  H   UNL     1       4.160  -1.764  -2.332  0.00  0.00    +0.062 HD
ATOM     58  H   UNL     1       2.023  -2.874  -1.877  0.00  0.00    +0.062 HD
ATOM     59  H   UNL     1       0.233  -3.489  -0.308  0.00  0.00    +0.062 HD
ATOM     60  H   UNL     1       0.323  -2.750   2.047  0.00  0.00    +0.062 HD
ATOM     61  H   UNL     1       2.209  -1.450   2.872  0.00  0.00    +0.062 HD
ENDBRANCH  42  45
ENDBRANCH  40  42
ENDBRANCH  34  40
ENDBRANCH   1  30
BRANCH   1  62
ATOM     62  C   UNL     1      -1.811   3.372   0.349  0.00  0.00    -0.030 C 
ATOM     63  C   UNL     1      -2.017   4.719   1.027  0.00  0.00    -0.049 C 
ATOM     64  C   UNL     1      -3.203   3.794   0.803  0.00  0.00    -0.049 C 
ATOM     65  H   UNL     1      -1.662   3.405  -0.751  0.00  0.00    +0.031 HD
ATOM     66  H   UNL     1      -1.687   4.788   2.086  0.00  0.00    +0.027 HD
ATOM     67  H   UNL     1      -1.983   5.588   0.337  0.00  0.00    +0.027 HD
ATOM     68  H   UNL     1      -3.587   3.319   1.731  0.00  0.00    +0.027 HD
ATOM     69  H   UNL     1      -3.876   4.119  -0.018  0.00  0.00    +0.027 HD
ENDBRANCH   1  62
TORSDOF 7
