REMARK  Name = 
REMARK  21 active torsions:
REMARK  status: ('A' for Active; 'I' for Inactive)
REMARK    1  A    between atoms: C_1  and  C_2
REMARK    2  A    between atoms: C_2  and  C_3
REMARK    3  A    between atoms: C_2  and  C_4
REMARK    4  A    between atoms: C_4  and  C_5
REMARK    5  A    between atoms: C_4  and  C_6
REMARK    6  A    between atoms: C_9  and  C_11
REMARK    7  A    between atoms: C_11  and  O_12
REMARK    8  A    between atoms: C_11  and  C_13
REMARK    9  A    between atoms: C_13  and  O_14
REMARK   10  A    between atoms: C_13  and  C_15
REMARK   11  A    between atoms: C_15  and  O_16
REMARK   12  A    between atoms: C_15  and  C_17
REMARK   13  A    between atoms: C_17  and  O_18
REMARK   14  A    between atoms: C_17  and  C_31
REMARK   15  A    between atoms: O_18  and  C_19
REMARK   16  A    between atoms: C_22  and  C_23
REMARK   17  A    between atoms: C_34  and  C_36
REMARK   18  A    between atoms: C_36  and  C_37
REMARK   19  A    between atoms: C_36  and  C_38
REMARK   20  A    between atoms: C_38  and  C_39
REMARK   21  A    between atoms: C_38  and  C_40
REMARK                            x       y       z     vdW  Elec       q    Type
REMARK                         _______ _______ _______ _____ _____    ______ ____
ROOT
ATOM      1  C   UNL     1      -1.123  -0.722  -0.121  0.00  0.00    +0.204 C 
ATOM      2  H   UNL     1      -0.750  -0.020   0.655  0.00  0.00    +0.086 HD
ENDROOT
BRANCH   1   3
ATOM      3  C   UNL     1      -2.316  -1.471   0.414  0.00  0.00    +0.263 C 
ATOM      4  O   UNL     1      -3.104  -2.036  -0.392  0.00  0.00    -0.271 OA
ATOM      5  N   UNL     1      -2.519  -1.575   1.833  0.00  0.00    -0.253 N 
ATOM      6  C   UNL     1      -3.585  -2.322   2.440  0.00  0.00    +0.222 C 
ATOM      7  O   UNL     1      -4.453  -2.894   1.724  0.00  0.00    -0.275 OA
ATOM      8  H   UNL     1      -1.831  -1.103   2.462  0.00  0.00    +0.158 HD
BRANCH   6   9
ATOM      9  C   UNL     1      -3.641  -2.463   3.946  0.00  0.00    +0.035 C 
ATOM     10  H   UNL     1      -3.116  -1.586   4.387  0.00  0.00    +0.039 HD
BRANCH   9  11
ATOM     11  C   UNL     1      -5.087  -2.369   4.458  0.00  0.00    -0.054 C 
ATOM     12  H   UNL     1      -5.109  -2.452   5.566  0.00  0.00    +0.024 HD
ATOM     13  H   UNL     1      -5.523  -1.386   4.179  0.00  0.00    +0.024 HD
ATOM     14  H   UNL     1      -5.727  -3.167   4.027  0.00  0.00    +0.024 HD
ENDBRANCH   9  11
BRANCH   9  15
ATOM     15  C   UNL     1      -2.914  -3.742   4.456  0.00  0.00    -0.036 C 
ATOM     16  H   UNL     1      -3.045  -3.788   5.560  0.00  0.00    +0.030 HD
BRANCH  15  17
ATOM     17  C   UNL     1      -3.484  -5.048   3.874  0.00  0.00    -0.062 C 
ATOM     18  H   UNL     1      -3.348  -5.087   2.772  0.00  0.00    +0.023 HD
ATOM     19  H   UNL     1      -2.958  -5.920   4.319  0.00  0.00    +0.023 HD
ATOM     20  H   UNL     1      -4.561  -5.152   4.114  0.00  0.00    +0.023 HD
ENDBRANCH  15  17
BRANCH  15  21
ATOM     21  C   UNL     1      -1.402  -3.668   4.195  0.00  0.00    -0.062 C 
ATOM     22  H   UNL     1      -0.980  -2.734   4.624  0.00  0.00    +0.023 HD
ATOM     23  H   UNL     1      -1.184  -3.694   3.106  0.00  0.00    +0.023 HD
ATOM     24  H   UNL     1      -0.889  -4.527   4.677  0.00  0.00    +0.023 HD
ENDBRANCH  15  21
ENDBRANCH   9  15
ENDBRANCH   6   9
ENDBRANCH   1   3
BRANCH   1  25
ATOM     25  C   UNL     1       0.010  -1.721  -0.478  0.00  0.00    +0.129 C 
ATOM     26  H   UNL     1      -0.416  -2.449  -1.204  0.00  0.00    +0.066 HD
BRANCH  25  27
ATOM     27  O   UNL     1       0.413  -2.475   0.641  0.00  0.00    -0.385 OA
ATOM     28  H   UNL     1       0.509  -1.863   1.415  0.00  0.00    +0.210 HD
ENDBRANCH  25  27
BRANCH  25  29
ATOM     29  C   UNL     1       1.245  -1.078  -1.178  0.00  0.00    +0.119 C 
ATOM     30  H   UNL     1       2.033  -1.865  -1.243  0.00  0.00    +0.065 HD
BRANCH  29  31
ATOM     31  O   UNL     1       0.895  -0.683  -2.482  0.00  0.00    -0.386 OA
ATOM     32  H   UNL     1       0.863  -1.505  -3.038  0.00  0.00    +0.210 HD
ENDBRANCH  29  31
BRANCH  29  33
ATOM     33  C   UNL     1       1.849   0.143  -0.431  0.00  0.00    +0.159 C 
ATOM     34  H   UNL     1       1.069   0.930  -0.361  0.00  0.00    +0.072 HD
BRANCH  33  38
ATOM     35  C   UNL     1       5.357   0.464  -2.129  0.00  0.00    +0.222 C 
ATOM     36  O   UNL     1       5.392   1.659  -2.533  0.00  0.00    -0.275 OA
ATOM     37  N   UNL     1       4.205  -0.034  -1.428  0.00  0.00    -0.254 N 
ATOM     38  C   UNL     1       3.013   0.736  -1.191  0.00  0.00    +0.250 C 
ATOM     39  O   UNL     1       2.922   1.918  -1.620  0.00  0.00    -0.272 OA
ATOM     40  H   UNL     1       4.244  -1.015  -1.071  0.00  0.00    +0.158 HD
BRANCH  35  41
ATOM     41  C   UNL     1       6.558  -0.435  -2.325  0.00  0.00    +0.035 C 
ATOM     42  H   UNL     1       6.165  -1.468  -2.451  0.00  0.00    +0.039 HD
BRANCH  41  43
ATOM     43  C   UNL     1       7.301  -0.096  -3.630  0.00  0.00    -0.054 C 
ATOM     44  H   UNL     1       7.718   0.932  -3.607  0.00  0.00    +0.024 HD
ATOM     45  H   UNL     1       6.599  -0.166  -4.489  0.00  0.00    +0.024 HD
ATOM     46  H   UNL     1       8.124  -0.817  -3.814  0.00  0.00    +0.024 HD
ENDBRANCH  41  43
BRANCH  41  47
ATOM     47  C   UNL     1       7.465  -0.428  -1.059  0.00  0.00    -0.036 C 
ATOM     48  H   UNL     1       6.811  -0.621  -0.179  0.00  0.00    +0.030 HD
BRANCH  47  49
ATOM     49  C   UNL     1       8.166   0.919  -0.813  0.00  0.00    -0.062 C 
ATOM     50  H   UNL     1       8.915   1.132  -1.604  0.00  0.00    +0.023 HD
ATOM     51  H   UNL     1       8.693   0.895   0.164  0.00  0.00    +0.023 HD
ATOM     52  H   UNL     1       7.428   1.747  -0.777  0.00  0.00    +0.023 HD
ENDBRANCH  47  49
BRANCH  47  53
ATOM     53  C   UNL     1       8.497  -1.565  -1.087  0.00  0.00    -0.062 C 
ATOM     54  H   UNL     1       9.264  -1.393  -1.870  0.00  0.00    +0.023 HD
ATOM     55  H   UNL     1       9.013  -1.631  -0.105  0.00  0.00    +0.023 HD
ATOM     56  H   UNL     1       7.997  -2.538  -1.276  0.00  0.00    +0.023 HD
ENDBRANCH  47  53
ENDBRANCH  41  47
ENDBRANCH  35  41
ENDBRANCH  33  38
BRANCH  33  57
ATOM     57  O   UNL     1       2.246  -0.177   0.879  0.00  0.00    -0.380 OA
ATOM     58  H   UNL     1       2.872  -0.946   0.830  0.00  0.00    +0.211 HD
ENDBRANCH  33  57
ENDBRANCH  29  33
ENDBRANCH  25  29
ENDBRANCH   1  25
BRANCH   1  59
ATOM     59  O   UNL     1      -1.497   0.018  -1.286  0.00  0.00    -0.477 OA
BRANCH  59  60
ATOM     60  C   UNL     1      -2.303   1.168  -1.295  0.00  0.00    +0.122 A 
ATOM     61  C   UNL     1      -2.572   1.775  -2.526  0.00  0.00    -0.019 A 
ATOM     62  C   UNL     1      -3.369   2.921  -2.597  0.00  0.00    -0.049 A 
ATOM     63  C   UNL     1      -3.919   3.483  -1.429  0.00  0.00    +0.001 A 
ATOM     64  C   UNL     1      -3.636   2.878  -0.191  0.00  0.00    -0.049 A 
ATOM     65  C   UNL     1      -2.840   1.731  -0.123  0.00  0.00    -0.019 A 
ATOM     66  H   UNL     1      -2.156   1.358  -3.434  0.00  0.00    +0.065 HD
ATOM     67  H   UNL     1      -3.529   3.377  -3.564  0.00  0.00    +0.063 HD
ATOM     68  H   UNL     1      -4.042   3.285   0.726  0.00  0.00    +0.063 HD
ATOM     69  H   UNL     1      -2.653   1.293   0.847  0.00  0.00    +0.065 HD
BRANCH  63  70
ATOM     70  C   UNL     1      -4.761   4.705  -1.479  0.00  0.00    +0.071 A 
ATOM     71  C   UNL     1      -5.549   5.016  -2.604  0.00  0.00    -0.036 A 
ATOM     72  C   UNL     1      -6.327   6.176  -2.601  0.00  0.00    -0.058 A 
ATOM     73  C   UNL     1      -6.324   7.013  -1.485  0.00  0.00    -0.044 A 
ATOM     74  C   UNL     1      -5.542   6.673  -0.381  0.00  0.00    +0.028 A 
ATOM     75  N   UNL     1      -4.790   5.541  -0.402  0.00  0.00    -0.255 NA
ATOM     76  H   UNL     1      -5.585   4.364  -3.466  0.00  0.00    +0.064 HD
ATOM     77  H   UNL     1      -6.937   6.421  -3.460  0.00  0.00    +0.062 HD
ATOM     78  H   UNL     1      -6.926   7.912  -1.474  0.00  0.00    +0.063 HD
ATOM     79  H   UNL     1      -5.533   7.309   0.494  0.00  0.00    +0.083 HD
ENDBRANCH  63  70
ENDBRANCH  59  60
ENDBRANCH   1  59
TORSDOF 21
