REMARK  Name = 
REMARK  14 active torsions:
REMARK  status: ('A' for Active; 'I' for Inactive)
REMARK    1  A    between atoms: C_1  and  C_2
REMARK    2  A    between atoms: C_2  and  C_3
REMARK    3  A    between atoms: C_2  and  C_4
REMARK    4  A    between atoms: C_4  and  C_5
REMARK    5  A    between atoms: C_5  and  N_6
REMARK    6  A    between atoms: N_6  and  C_7
REMARK    7  A    between atoms: N_6  and  S_33
REMARK    8  A    between atoms: C_7  and  C_8
REMARK    9  A    between atoms: C_8  and  O_9
REMARK   10  A    between atoms: C_8  and  C_10
REMARK   11  A    between atoms: C_24  and  C_25
REMARK   12  A    between atoms: C_25  and  C_26
REMARK   13  A    between atoms: C_25  and  C_27
REMARK   14  A    between atoms: S_33  and  C_36
REMARK                            x       y       z     vdW  Elec       q    Type
REMARK                         _______ _______ _______ _____ _____    ______ ____
ROOT
ATOM      1  C   UNL     1      -0.070   0.577   0.548  0.00  0.00    +0.054 C 
ATOM      2  C   UNL     1       0.187   1.632   1.652  0.00  0.00    -0.007 C 
ATOM      3  C   UNL     1       1.601   1.562   2.179  0.00  0.00    -0.045 A 
ATOM      4  C   UNL     1       2.474   2.651   2.021  0.00  0.00    -0.055 A 
ATOM      5  C   UNL     1       3.804   2.555   2.442  0.00  0.00    -0.020 A 
ATOM      6  C   UNL     1       4.291   1.361   2.985  0.00  0.00    +0.121 A 
ATOM      7  O   UNL     1       5.664   1.258   3.255  0.00  0.00    -0.492 OA
ATOM      8  C   UNL     1       6.444   0.078   3.036  0.00  0.00    +0.090 C 
ATOM      9  C   UNL     1       6.896  -0.040   1.570  0.00  0.00    -0.018 C 
ATOM     10  C   UNL     1       5.719  -0.021   0.585  0.00  0.00    -0.042 C 
ATOM     11  C   UNL     1       6.148  -0.377  -0.840  0.00  0.00    +0.024 C 
ATOM     12  C   UNL     1       5.020  -0.089  -1.786  0.00  0.00    +0.214 C 
ATOM     13  O   UNL     1       5.095   0.905  -2.558  0.00  0.00    -0.276 OA
ATOM     14  N   UNL     1       3.836  -0.897  -1.757  0.00  0.00    -0.304 N 
ATOM     15  C   UNL     1       2.532  -0.408  -2.218  0.00  0.00    +0.102 C 
ATOM     16  C   UNL     1       1.545  -0.532  -1.081  0.00  0.00    +0.234 C 
ATOM     17  O   UNL     1       1.229  -1.677  -0.658  0.00  0.00    -0.274 OA
ATOM     18  N   UNL     1       0.982   0.643  -0.475  0.00  0.00    -0.308 N 
ATOM     19  C   UNL     1       3.402   0.294   3.205  0.00  0.00    -0.020 A 
ATOM     20  C   UNL     1       2.066   0.398   2.810  0.00  0.00    -0.055 A 
ATOM     21  H   UNL     1      -0.046  -0.422   1.036  0.00  0.00    +0.053 HD
ATOM     22  H   UNL     1      -0.500   1.458   2.507  0.00  0.00    +0.033 HD
ATOM     23  H   UNL     1      -0.027   2.648   1.256  0.00  0.00    +0.033 HD
ATOM     24  H   UNL     1       2.135   3.565   1.551  0.00  0.00    +0.062 HD
ATOM     25  H   UNL     1       4.475   3.390   2.284  0.00  0.00    +0.065 HD
ATOM     26  H   UNL     1       7.354   0.143   3.670  0.00  0.00    +0.070 HD
ATOM     27  H   UNL     1       5.904  -0.838   3.348  0.00  0.00    +0.070 HD
ATOM     28  H   UNL     1       7.461  -0.991   1.454  0.00  0.00    +0.030 HD
ATOM     29  H   UNL     1       7.585   0.800   1.333  0.00  0.00    +0.030 HD
ATOM     30  H   UNL     1       4.938  -0.741   0.918  0.00  0.00    +0.027 HD
ATOM     31  H   UNL     1       5.285   1.001   0.569  0.00  0.00    +0.027 HD
ATOM     32  H   UNL     1       7.040   0.222  -1.130  0.00  0.00    +0.036 HD
ATOM     33  H   UNL     1       6.416  -1.454  -0.898  0.00  0.00    +0.036 HD
ATOM     34  H   UNL     1       3.892  -1.848  -1.324  0.00  0.00    +0.149 HD
ATOM     35  H   UNL     1       2.610   0.664  -2.502  0.00  0.00    +0.060 HD
ATOM     36  H   UNL     1       1.244   1.580  -0.856  0.00  0.00    +0.149 HD
ATOM     37  H   UNL     1       3.732  -0.622   3.674  0.00  0.00    +0.065 HD
ATOM     38  H   UNL     1       1.401  -0.441   2.972  0.00  0.00    +0.062 HD
ENDROOT
BRANCH  15  39
ATOM     39  C   UNL     1       2.063  -1.201  -3.466  0.00  0.00    -0.020 C 
ATOM     40  H   UNL     1       1.941  -2.273  -3.193  0.00  0.00    +0.032 HD
BRANCH  39  41
ATOM     41  C   UNL     1       3.101  -1.122  -4.597  0.00  0.00    -0.061 C 
ATOM     42  H   UNL     1       4.058  -1.588  -4.281  0.00  0.00    +0.023 HD
ATOM     43  H   UNL     1       2.739  -1.673  -5.491  0.00  0.00    +0.023 HD
ATOM     44  H   UNL     1       3.291  -0.065  -4.880  0.00  0.00    +0.023 HD
ENDBRANCH  39  41
BRANCH  39  45
ATOM     45  C   UNL     1       0.710  -0.682  -3.980  0.00  0.00    -0.061 C 
ATOM     46  H   UNL     1       0.385  -1.263  -4.869  0.00  0.00    +0.023 HD
ATOM     47  H   UNL     1       0.782   0.392  -4.259  0.00  0.00    +0.023 HD
ATOM     48  H   UNL     1      -0.072  -0.795  -3.201  0.00  0.00    +0.023 HD
ENDBRANCH  39  45
ENDBRANCH  15  39
BRANCH   1  49
ATOM     49  C   UNL     1      -1.455   0.729  -0.130  0.00  0.00    +0.088 C 
ATOM     50  H   UNL     1      -1.526  -0.059  -0.913  0.00  0.00    +0.063 HD
BRANCH  49  51
ATOM     51  C   UNL     1      -2.614   0.519   0.862  0.00  0.00    +0.048 C 
ATOM     52  H   UNL     1      -2.596   1.375   1.569  0.00  0.00    +0.047 HD
ATOM     53  H   UNL     1      -2.458  -0.408   1.461  0.00  0.00    +0.047 HD
BRANCH  51  54
ATOM     54  N   UNL     1      -3.911   0.474   0.154  0.00  0.00    -0.174 NA
BRANCH  54  55
ATOM     55  S   UNL     1      -5.185   1.017   1.231  0.00  0.00    +0.061 S 
ATOM     56  O   UNL     1      -6.526   0.868   0.569  0.00  0.00    -0.153 OA
ATOM     57  O   UNL     1      -4.984   2.474   1.540  0.00  0.00    -0.153 OA
BRANCH  55  58
ATOM     58  C   UNL     1      -5.181   0.102   2.742  0.00  0.00    +0.105 A 
ATOM     59  C   UNL     1      -5.989  -1.038   2.883  0.00  0.00    -0.035 A 
ATOM     60  C   UNL     1      -5.976  -1.766   4.076  0.00  0.00    -0.060 A 
ATOM     61  C   UNL     1      -5.161  -1.360   5.136  0.00  0.00    -0.062 A 
ATOM     62  C   UNL     1      -4.360  -0.222   5.005  0.00  0.00    -0.060 A 
ATOM     63  C   UNL     1      -4.371   0.508   3.813  0.00  0.00    -0.035 A 
ATOM     64  H   UNL     1      -6.625  -1.364   2.070  0.00  0.00    +0.064 HD
ATOM     65  H   UNL     1      -6.598  -2.646   4.179  0.00  0.00    +0.062 HD
ATOM     66  H   UNL     1      -5.152  -1.924   6.060  0.00  0.00    +0.062 HD
ATOM     67  H   UNL     1      -3.731   0.094   5.827  0.00  0.00    +0.062 HD
ATOM     68  H   UNL     1      -3.747   1.389   3.727  0.00  0.00    +0.064 HD
ENDBRANCH  55  58
ENDBRANCH  54  55
BRANCH  54  69
ATOM     69  C   UNL     1      -4.209  -0.879  -0.370  0.00  0.00    +0.021 C 
ATOM     70  H   UNL     1      -4.836  -1.459   0.339  0.00  0.00    +0.044 HD
ATOM     71  H   UNL     1      -3.288  -1.486  -0.501  0.00  0.00    +0.044 HD
BRANCH  69  72
ATOM     72  C   UNL     1      -4.936  -0.793  -1.723  0.00  0.00    -0.036 C 
ATOM     73  H   UNL     1      -5.842  -0.165  -1.597  0.00  0.00    +0.028 HD
ATOM     74  H   UNL     1      -5.295  -1.807  -2.005  0.00  0.00    +0.028 HD
BRANCH  72  75
ATOM     75  C   UNL     1      -4.056  -0.218  -2.858  0.00  0.00    -0.046 C 
ATOM     76  H   UNL     1      -3.474   0.648  -2.475  0.00  0.00    +0.030 HD
BRANCH  75  77
ATOM     77  C   UNL     1      -3.072  -1.268  -3.397  0.00  0.00    -0.063 C 
ATOM     78  H   UNL     1      -2.387  -1.618  -2.599  0.00  0.00    +0.023 HD
ATOM     79  H   UNL     1      -2.452  -0.828  -4.207  0.00  0.00    +0.023 HD
ATOM     80  H   UNL     1      -3.619  -2.144  -3.806  0.00  0.00    +0.023 HD
ENDBRANCH  75  77
BRANCH  75  81
ATOM     81  C   UNL     1      -4.937   0.297  -4.004  0.00  0.00    -0.063 C 
ATOM     82  H   UNL     1      -4.306   0.717  -4.817  0.00  0.00    +0.023 HD
ATOM     83  H   UNL     1      -5.606   1.106  -3.640  0.00  0.00    +0.023 HD
ATOM     84  H   UNL     1      -5.559  -0.525  -4.420  0.00  0.00    +0.023 HD
ENDBRANCH  75  81
ENDBRANCH  72  75
ENDBRANCH  69  72
ENDBRANCH  54  69
ENDBRANCH  51  54
ENDBRANCH  49  51
BRANCH  49  85
ATOM     85  O   UNL     1      -1.581   1.998  -0.723  0.00  0.00    -0.389 OA
ATOM     86  H   UNL     1      -1.155   1.946  -1.619  0.00  0.00    +0.210 HD
ENDBRANCH  49  85
ENDBRANCH   1  49
TORSDOF 14
