REMARK  Name = 
REMARK  17 active torsions:
REMARK  status: ('A' for Active; 'I' for Inactive)
REMARK    1  A    between atoms: C_1  and  O_2
REMARK    2  A    between atoms: O_2  and  C_3
REMARK    3  A    between atoms: C_6  and  S_7
REMARK    4  A    between atoms: S_7  and  N_10
REMARK    5  A    between atoms: N_10  and  C_11
REMARK    6  A    between atoms: N_10  and  C_15
REMARK    7  A    between atoms: C_11  and  C_12
REMARK    8  A    between atoms: C_12  and  C_13
REMARK    9  A    between atoms: C_12  and  C_14
REMARK   10  A    between atoms: C_15  and  C_16
REMARK   11  A    between atoms: C_16  and  O_17
REMARK   12  A    between atoms: C_16  and  C_18
REMARK   13  A    between atoms: C_18  and  C_19
REMARK   14  A    between atoms: C_18  and  N_26
REMARK   15  A    between atoms: C_19  and  C_20
REMARK   16  A    between atoms: C_27  and  O_29
REMARK   17  A    between atoms: O_29  and  C_30
REMARK                            x       y       z     vdW  Elec       q    Type
REMARK                         _______ _______ _______ _____ _____    ______ ____
ROOT
ATOM      1  C   UNL     1       2.305  -1.386   1.136  0.00  0.00    +0.057 C 
ATOM      2  H   UNL     1       3.153  -2.093   1.290  0.00  0.00    +0.053 HD
ENDROOT
BRANCH   1   3
ATOM      3  N   UNL     1       2.606  -0.624  -0.089  0.00  0.00    -0.275 N 
ATOM      4  C   UNL     1       1.919   0.546  -0.558  0.00  0.00    +0.401 C 
ATOM      5  O   UNL     1       1.042   1.111   0.148  0.00  0.00    -0.226 OA
ATOM      6  H   UNL     1       3.401  -0.965  -0.676  0.00  0.00    +0.152 HD
BRANCH   4   7
ATOM      7  O   UNL     1       2.242   1.059  -1.818  0.00  0.00    -0.444 OA
BRANCH   7   8
ATOM      8  C   UNL     1       1.562   2.170  -2.407  0.00  0.00    +0.135 C 
ATOM      9  C   UNL     1       0.150   1.812  -2.822  0.00  0.00    +0.088 C 
ATOM     10  O   UNL     1      -0.217   2.635  -3.902  0.00  0.00    -0.347 OA
ATOM     11  C   UNL     1       0.968   3.018  -4.568  0.00  0.00    +0.165 C 
ATOM     12  O   UNL     1       0.974   2.426  -5.858  0.00  0.00    -0.351 OA
ATOM     13  C   UNL     1       2.199   2.699  -6.511  0.00  0.00    +0.051 C 
ATOM     14  C   UNL     1       3.364   1.944  -5.845  0.00  0.00    -0.029 C 
ATOM     15  C   UNL     1       3.010   1.513  -4.417  0.00  0.00    -0.040 C 
ATOM     16  C   UNL     1       2.188   2.611  -3.712  0.00  0.00    +0.049 C 
ATOM     17  H   UNL     1       1.543   3.029  -1.699  0.00  0.00    +0.076 HD
ATOM     18  H   UNL     1       0.092   0.747  -3.139  0.00  0.00    +0.060 HD
ATOM     19  H   UNL     1      -0.554   1.969  -1.977  0.00  0.00    +0.060 HD
ATOM     20  H   UNL     1       0.945   4.127  -4.670  0.00  0.00    +0.091 HD
ATOM     21  H   UNL     1       2.115   2.375  -7.571  0.00  0.00    +0.056 HD
ATOM     22  H   UNL     1       2.405   3.794  -6.530  0.00  0.00    +0.056 HD
ATOM     23  H   UNL     1       3.620   1.040  -6.440  0.00  0.00    +0.029 HD
ATOM     24  H   UNL     1       4.260   2.601  -5.824  0.00  0.00    +0.029 HD
ATOM     25  H   UNL     1       3.943   1.308  -3.849  0.00  0.00    +0.027 HD
ATOM     26  H   UNL     1       2.418   0.571  -4.463  0.00  0.00    +0.027 HD
ATOM     27  H   UNL     1       2.846   3.492  -3.537  0.00  0.00    +0.039 HD
ENDBRANCH   7   8
ENDBRANCH   4   7
ENDBRANCH   1   3
BRANCH   1  28
ATOM     28  C   UNL     1       2.270  -0.503   2.405  0.00  0.00    -0.007 C 
ATOM     29  H   UNL     1       1.423   0.211   2.387  0.00  0.00    +0.033 HD
ATOM     30  H   UNL     1       2.097  -1.152   3.292  0.00  0.00    +0.033 HD
BRANCH  28  31
ATOM     31  C   UNL     1       3.571   0.235   2.604  0.00  0.00    -0.046 A 
ATOM     32  C   UNL     1       3.676   1.599   2.283  0.00  0.00    -0.059 A 
ATOM     33  C   UNL     1       4.893   2.269   2.444  0.00  0.00    -0.062 A 
ATOM     34  C   UNL     1       6.012   1.584   2.925  0.00  0.00    -0.062 A 
ATOM     35  C   UNL     1       5.916   0.227   3.245  0.00  0.00    -0.062 A 
ATOM     36  C   UNL     1       4.702  -0.447   3.085  0.00  0.00    -0.059 A 
ATOM     37  H   UNL     1       2.820   2.146   1.911  0.00  0.00    +0.062 HD
ATOM     38  H   UNL     1       4.968   3.320   2.196  0.00  0.00    +0.062 HD
ATOM     39  H   UNL     1       6.953   2.104   3.049  0.00  0.00    +0.062 HD
ATOM     40  H   UNL     1       6.784  -0.303   3.617  0.00  0.00    +0.062 HD
ATOM     41  H   UNL     1       4.642  -1.499   3.333  0.00  0.00    +0.062 HD
ENDBRANCH  28  31
ENDBRANCH   1  28
BRANCH   1  42
ATOM     42  C   UNL     1       1.056  -2.301   0.982  0.00  0.00    +0.088 C 
ATOM     43  H   UNL     1       0.928  -2.828   1.951  0.00  0.00    +0.063 HD
BRANCH  42  44
ATOM     44  C   UNL     1      -0.263  -1.567   0.670  0.00  0.00    +0.048 C 
ATOM     45  H   UNL     1      -0.399  -0.699   1.345  0.00  0.00    +0.047 HD
ATOM     46  H   UNL     1      -0.184  -1.146  -0.355  0.00  0.00    +0.047 HD
BRANCH  44  47
ATOM     47  N   UNL     1      -1.399  -2.509   0.786  0.00  0.00    -0.174 NA
BRANCH  47  48
ATOM     48  C   UNL     1      -2.391  -2.303  -0.295  0.00  0.00    +0.023 C 
ATOM     49  H   UNL     1      -1.870  -2.166  -1.269  0.00  0.00    +0.045 HD
ATOM     50  H   UNL     1      -2.979  -1.376  -0.118  0.00  0.00    +0.045 HD
BRANCH  48  51
ATOM     51  C   UNL     1      -3.328  -3.517  -0.469  0.00  0.00    -0.032 C 
ATOM     52  H   UNL     1      -3.919  -3.673   0.455  0.00  0.00    +0.031 HD
BRANCH  51  53
ATOM     53  C   UNL     1      -2.531  -4.798  -0.755  0.00  0.00    -0.061 C 
ATOM     54  H   UNL     1      -1.918  -4.681  -1.675  0.00  0.00    +0.023 HD
ATOM     55  H   UNL     1      -1.860  -5.035   0.097  0.00  0.00    +0.023 HD
ATOM     56  H   UNL     1      -3.223  -5.657  -0.892  0.00  0.00    +0.023 HD
ENDBRANCH  51  53
BRANCH  51  57
ATOM     57  C   UNL     1      -4.330  -3.253  -1.599  0.00  0.00    -0.061 C 
ATOM     58  H   UNL     1      -4.928  -2.344  -1.375  0.00  0.00    +0.023 HD
ATOM     59  H   UNL     1      -3.804  -3.107  -2.567  0.00  0.00    +0.023 HD
ATOM     60  H   UNL     1      -5.031  -4.110  -1.699  0.00  0.00    +0.023 HD
ENDBRANCH  51  57
ENDBRANCH  48  51
ENDBRANCH  47  48
BRANCH  47  61
ATOM     61  S   UNL     1      -2.134  -2.391   2.380  0.00  0.00    +0.061 S 
ATOM     62  O   UNL     1      -1.069  -2.217   3.428  0.00  0.00    -0.153 OA
ATOM     63  O   UNL     1      -2.866  -3.666   2.692  0.00  0.00    -0.153 OA
BRANCH  61  67
ATOM     64  C   UNL     1      -5.025   1.154   2.637  0.00  0.00    +0.120 A 
ATOM     65  C   UNL     1      -5.501  -0.128   2.339  0.00  0.00    -0.018 A 
ATOM     66  C   UNL     1      -4.622  -1.213   2.269  0.00  0.00    -0.032 A 
ATOM     67  C   UNL     1      -3.251  -1.027   2.494  0.00  0.00    +0.106 A 
ATOM     68  C   UNL     1      -2.771   0.253   2.800  0.00  0.00    -0.032 A 
ATOM     69  C   UNL     1      -3.649   1.339   2.870  0.00  0.00    -0.018 A 
ATOM     70  H   UNL     1      -6.557  -0.284   2.159  0.00  0.00    +0.065 HD
ATOM     71  H   UNL     1      -5.014  -2.194   2.036  0.00  0.00    +0.064 HD
ATOM     72  H   UNL     1      -1.718   0.415   2.988  0.00  0.00    +0.064 HD
ATOM     73  H   UNL     1      -3.248   2.315   3.106  0.00  0.00    +0.065 HD
BRANCH  64  74
ATOM     74  O   UNL     1      -5.947   2.211   2.693  0.00  0.00    -0.495 OA
BRANCH  74  75
ATOM     75  C   UNL     1      -5.603   3.562   2.982  0.00  0.00    +0.079 C 
ATOM     76  H   UNL     1      -6.522   4.183   2.959  0.00  0.00    +0.066 HD
ATOM     77  H   UNL     1      -4.894   3.947   2.219  0.00  0.00    +0.066 HD
ATOM     78  H   UNL     1      -5.151   3.633   3.994  0.00  0.00    +0.066 HD
ENDBRANCH  74  75
ENDBRANCH  64  74
ENDBRANCH  61  67
ENDBRANCH  47  61
ENDBRANCH  44  47
ENDBRANCH  42  44
BRANCH  42  79
ATOM     79  O   UNL     1       1.296  -3.296   0.018  0.00  0.00    -0.389 OA
ATOM     80  H   UNL     1       1.393  -2.848  -0.863  0.00  0.00    +0.210 HD
ENDBRANCH  42  79
ENDBRANCH   1  42
TORSDOF 17
