REMARK  Name = 
REMARK  18 active torsions:
REMARK  status: ('A' for Active; 'I' for Inactive)
REMARK    1  A    between atoms: C_1  and  C_2
REMARK    2  A    between atoms: C_2  and  C_3
REMARK    3  A    between atoms: C_2  and  C_4
REMARK    4  A    between atoms: C_4  and  N_5
REMARK    5  A    between atoms: C_4  and  C_41
REMARK    6  A    between atoms: C_6  and  C_8
REMARK    7  A    between atoms: C_8  and  C_9
REMARK    8  A    between atoms: C_11  and  C_12
REMARK    9  A    between atoms: C_12  and  C_13
REMARK   10  A    between atoms: C_12  and  N_20
REMARK   11  A    between atoms: C_13  and  C_14
REMARK   12  A    between atoms: C_21  and  C_23
REMARK   13  A    between atoms: C_23  and  C_24
REMARK   14  A    between atoms: C_23  and  N_28
REMARK   15  A    between atoms: C_24  and  C_25
REMARK   16  A    between atoms: C_29  and  C_31
REMARK   17  A    between atoms: C_41  and  C_42
REMARK   18  A    between atoms: C_41  and  C_43
REMARK                            x       y       z     vdW  Elec       q    Type
REMARK                         _______ _______ _______ _____ _____    ______ ____
ROOT
ATOM      1  C   UNL     1      -0.496  -0.212  -1.036  0.00  0.00    +0.056 C 
ATOM      2  H   UNL     1      -1.523  -0.430  -1.394  0.00  0.00    +0.053 HD
ENDROOT
BRANCH   1   5
ATOM      3  C   UNL     1      -1.132   2.330  -1.446  0.00  0.00    +0.095 C 
ATOM      4  O   UNL     1      -0.553   1.700  -2.567  0.00  0.00    -0.366 OA
ATOM      5  C   UNL     1      -0.104   1.256  -1.306  0.00  0.00    +0.104 C 
ATOM      6  H   UNL     1      -0.779   3.378  -1.343  0.00  0.00    +0.063 HD
ATOM      7  H   UNL     1       0.945   1.575  -1.135  0.00  0.00    +0.064 HD
BRANCH   3   8
ATOM      8  C   UNL     1      -2.638   2.040  -1.378  0.00  0.00    +0.053 C 
ATOM      9  H   UNL     1      -3.175   2.914  -1.802  0.00  0.00    +0.038 HD
ATOM     10  H   UNL     1      -2.919   1.168  -2.006  0.00  0.00    +0.038 HD
BRANCH   8  12
ATOM     11  N   UNL     1      -4.115   0.875   0.330  0.00  0.00    -0.312 N 
ATOM     12  C   UNL     1      -3.104   1.851   0.035  0.00  0.00    +0.216 C 
ATOM     13  O   UNL     1      -2.641   2.587   0.949  0.00  0.00    -0.276 OA
ATOM     14  H   UNL     1      -4.513   0.330  -0.467  0.00  0.00    +0.149 HD
BRANCH  11  15
ATOM     15  C   UNL     1      -4.727   0.738   1.661  0.00  0.00    +0.028 C 
ATOM     16  H   UNL     1      -3.986   1.078   2.420  0.00  0.00    +0.050 HD
BRANCH  15  17
ATOM     17  C   UNL     1      -4.979  -0.759   2.027  0.00  0.00    -0.028 C 
ATOM     18  H   UNL     1      -5.308  -0.790   3.090  0.00  0.00    +0.031 HD
BRANCH  17  19
ATOM     19  C   UNL     1      -3.680  -1.574   1.944  0.00  0.00    -0.061 C 
ATOM     20  H   UNL     1      -3.846  -2.601   2.333  0.00  0.00    +0.023 HD
ATOM     21  H   UNL     1      -2.887  -1.101   2.561  0.00  0.00    +0.023 HD
ATOM     22  H   UNL     1      -3.329  -1.648   0.893  0.00  0.00    +0.023 HD
ENDBRANCH  17  19
BRANCH  17  23
ATOM     23  C   UNL     1      -6.080  -1.442   1.199  0.00  0.00    -0.061 C 
ATOM     24  H   UNL     1      -6.172  -2.509   1.497  0.00  0.00    +0.023 HD
ATOM     25  H   UNL     1      -5.856  -1.408   0.113  0.00  0.00    +0.023 HD
ATOM     26  H   UNL     1      -7.065  -0.972   1.392  0.00  0.00    +0.023 HD
ENDBRANCH  17  23
ENDBRANCH  15  17
BRANCH  15  27
ATOM     27  C   UNL     1      -6.002   1.636   1.809  0.00  0.00    -0.028 C 
ATOM     28  H   UNL     1      -6.697   1.154   2.532  0.00  0.00    +0.031 HD
BRANCH  27  29
ATOM     29  C   UNL     1      -5.652   3.007   2.406  0.00  0.00    -0.061 C 
ATOM     30  H   UNL     1      -4.980   3.574   1.728  0.00  0.00    +0.023 HD
ATOM     31  H   UNL     1      -5.153   2.886   3.391  0.00  0.00    +0.023 HD
ATOM     32  H   UNL     1      -6.576   3.603   2.566  0.00  0.00    +0.023 HD
ENDBRANCH  27  29
BRANCH  27  33
ATOM     33  C   UNL     1      -6.772   1.841   0.490  0.00  0.00    -0.061 C 
ATOM     34  H   UNL     1      -7.004   0.875   0.000  0.00  0.00    +0.023 HD
ATOM     35  H   UNL     1      -6.184   2.461  -0.219  0.00  0.00    +0.023 HD
ATOM     36  H   UNL     1      -7.734   2.359   0.691  0.00  0.00    +0.023 HD
ENDBRANCH  27  33
ENDBRANCH  15  27
ENDBRANCH  11  15
ENDBRANCH   8  12
ENDBRANCH   3   8
ENDBRANCH   1   5
BRANCH   1  37
ATOM     37  N   UNL     1       0.423  -1.099  -1.755  0.00  0.00    -0.308 N 
ATOM     38  C   UNL     1       0.398  -1.234  -3.185  0.00  0.00    +0.234 C 
ATOM     39  O   UNL     1      -0.653  -0.966  -3.828  0.00  0.00    -0.274 OA
ATOM     40  H   UNL     1       1.192  -1.577  -1.237  0.00  0.00    +0.149 HD
BRANCH  38  41
ATOM     41  C   UNL     1       1.623  -1.710  -3.928  0.00  0.00    +0.108 C 
ATOM     42  H   UNL     1       1.605  -1.263  -4.947  0.00  0.00    +0.060 HD
BRANCH  41  43
ATOM     43  N   UNL     1       2.844  -1.246  -3.255  0.00  0.00    -0.298 N 
ATOM     44  C   UNL     1       3.087   0.149  -3.014  0.00  0.00    +0.263 C 
ATOM     45  O   UNL     1       2.492   1.016  -3.711  0.00  0.00    -0.269 OA
ATOM     46  H   UNL     1       3.519  -1.944  -2.873  0.00  0.00    +0.150 HD
BRANCH  44  47
ATOM     47  C   UNL     1       3.992   0.572  -1.925  0.00  0.00    +0.126 A 
ATOM     48  C   UNL     1       4.129   1.929  -1.585  0.00  0.00    -0.031 A 
ATOM     49  C   UNL     1       4.964   2.296  -0.528  0.00  0.00    -0.050 A 
ATOM     50  C   UNL     1       5.660   1.314   0.184  0.00  0.00    +0.000 A 
ATOM     51  C   UNL     1       6.502   1.647   1.256  0.00  0.00    -0.053 A 
ATOM     52  C   UNL     1       7.175   0.640   1.955  0.00  0.00    -0.061 A 
ATOM     53  C   UNL     1       7.013  -0.700   1.587  0.00  0.00    -0.060 A 
ATOM     54  C   UNL     1       6.178  -1.041   0.518  0.00  0.00    -0.036 A 
ATOM     55  C   UNL     1       5.500  -0.039  -0.185  0.00  0.00    +0.072 A 
ATOM     56  N   UNL     1       4.675  -0.367  -1.215  0.00  0.00    -0.242 NA
ATOM     57  H   UNL     1       3.588   2.697  -2.123  0.00  0.00    +0.064 HD
ATOM     58  H   UNL     1       5.061   3.343  -0.266  0.00  0.00    +0.062 HD
ATOM     59  H   UNL     1       6.634   2.680   1.555  0.00  0.00    +0.062 HD
ATOM     60  H   UNL     1       7.821   0.897   2.784  0.00  0.00    +0.062 HD
ATOM     61  H   UNL     1       7.535  -1.476   2.132  0.00  0.00    +0.062 HD
ATOM     62  H   UNL     1       6.055  -2.081   0.243  0.00  0.00    +0.064 HD
ENDBRANCH  44  47
ENDBRANCH  41  43
BRANCH  41  63
ATOM     63  C   UNL     1       1.616  -3.243  -4.106  0.00  0.00    +0.051 C 
ATOM     64  H   UNL     1       0.734  -3.534  -4.718  0.00  0.00    +0.038 HD
ATOM     65  H   UNL     1       2.518  -3.546  -4.681  0.00  0.00    +0.038 HD
BRANCH  63  66
ATOM     66  C   UNL     1       1.574  -3.998  -2.805  0.00  0.00    +0.213 C 
ATOM     67  N   UNL     1       2.775  -4.486  -2.205  0.00  0.00    -0.329 N 
ATOM     68  O   UNL     1       0.469  -4.196  -2.232  0.00  0.00    -0.276 OA
ATOM     69  H   UNL     1       2.740  -4.983  -1.288  0.00  0.00    +0.145 HD
ATOM     70  H   UNL     1       3.697  -4.366  -2.679  0.00  0.00    +0.145 HD
ENDBRANCH  63  66
ENDBRANCH  41  63
ENDBRANCH  38  41
ENDBRANCH   1  37
BRANCH   1  71
ATOM     71  C   UNL     1      -0.487  -0.524   0.479  0.00  0.00    -0.007 C 
ATOM     72  H   UNL     1      -0.778  -1.588   0.624  0.00  0.00    +0.033 HD
ATOM     73  H   UNL     1      -1.271   0.078   0.981  0.00  0.00    +0.033 HD
BRANCH  71  74
ATOM     74  C   UNL     1       0.836  -0.263   1.165  0.00  0.00    -0.046 A 
ATOM     75  C   UNL     1       1.159   1.028   1.618  0.00  0.00    -0.059 A 
ATOM     76  C   UNL     1       2.377   1.267   2.262  0.00  0.00    -0.062 A 
ATOM     77  C   UNL     1       3.274   0.217   2.475  0.00  0.00    -0.062 A 
ATOM     78  C   UNL     1       2.959  -1.071   2.036  0.00  0.00    -0.062 A 
ATOM     79  C   UNL     1       1.746  -1.313   1.385  0.00  0.00    -0.059 A 
ATOM     80  H   UNL     1       0.468   1.849   1.473  0.00  0.00    +0.062 HD
ATOM     81  H   UNL     1       2.623   2.265   2.601  0.00  0.00    +0.062 HD
ATOM     82  H   UNL     1       4.213   0.403   2.979  0.00  0.00    +0.062 HD
ATOM     83  H   UNL     1       3.655  -1.883   2.202  0.00  0.00    +0.062 HD
ATOM     84  H   UNL     1       1.514  -2.320   1.060  0.00  0.00    +0.062 HD
ENDBRANCH  71  74
ENDBRANCH   1  71
TORSDOF 18
