REMARK  Name = 
REMARK  21 active torsions:
REMARK  status: ('A' for Active; 'I' for Inactive)
REMARK    1  A    between atoms: C_1  and  C_2
REMARK    2  A    between atoms: C_2  and  C_3
REMARK    3  A    between atoms: C_2  and  C_4
REMARK    4  A    between atoms: C_4  and  C_5
REMARK    5  A    between atoms: C_4  and  C_6
REMARK    6  A    between atoms: C_9  and  C_11
REMARK    7  A    between atoms: C_11  and  O_12
REMARK    8  A    between atoms: C_11  and  C_13
REMARK    9  A    between atoms: C_13  and  O_14
REMARK   10  A    between atoms: C_13  and  C_15
REMARK   11  A    between atoms: C_15  and  O_16
REMARK   12  A    between atoms: C_15  and  C_17
REMARK   13  A    between atoms: C_17  and  O_18
REMARK   14  A    between atoms: C_17  and  C_31
REMARK   15  A    between atoms: O_18  and  C_19
REMARK   16  A    between atoms: C_22  and  C_23
REMARK   17  A    between atoms: C_34  and  C_36
REMARK   18  A    between atoms: C_36  and  C_37
REMARK   19  A    between atoms: C_36  and  C_38
REMARK   20  A    between atoms: C_38  and  C_39
REMARK   21  A    between atoms: C_38  and  C_40
REMARK                            x       y       z     vdW  Elec       q    Type
REMARK                         _______ _______ _______ _____ _____    ______ ____
ROOT
ATOM      1  C   UNL     1      -1.099   0.183   1.638  0.00  0.00    +0.204 C 
ATOM      2  H   UNL     1      -1.474   0.246   2.682  0.00  0.00    +0.086 HD
ENDROOT
BRANCH   1   3
ATOM      3  C   UNL     1      -1.037  -1.300   1.349  0.00  0.00    +0.263 C 
ATOM      4  O   UNL     1      -0.384  -2.038   2.137  0.00  0.00    -0.271 OA
ATOM      5  N   UNL     1      -1.720  -1.877   0.219  0.00  0.00    -0.253 N 
ATOM      6  C   UNL     1      -1.577  -3.249  -0.187  0.00  0.00    +0.222 C 
ATOM      7  O   UNL     1      -0.911  -4.054   0.518  0.00  0.00    -0.275 OA
ATOM      8  H   UNL     1      -2.309  -1.261  -0.384  0.00  0.00    +0.158 HD
BRANCH   6   9
ATOM      9  C   UNL     1      -2.173  -3.699  -1.503  0.00  0.00    +0.035 C 
ATOM     10  H   UNL     1      -3.121  -3.129  -1.624  0.00  0.00    +0.039 HD
BRANCH   9  11
ATOM     11  C   UNL     1      -1.250  -3.276  -2.656  0.00  0.00    -0.054 C 
ATOM     12  H   UNL     1      -1.149  -2.169  -2.674  0.00  0.00    +0.024 HD
ATOM     13  H   UNL     1      -1.669  -3.593  -3.633  0.00  0.00    +0.024 HD
ATOM     14  H   UNL     1      -0.236  -3.712  -2.535  0.00  0.00    +0.024 HD
ENDBRANCH   9  11
BRANCH   9  15
ATOM     15  C   UNL     1      -2.542  -5.218  -1.516  0.00  0.00    -0.036 C 
ATOM     16  H   UNL     1      -2.963  -5.477  -0.518  0.00  0.00    +0.030 HD
BRANCH  15  17
ATOM     17  C   UNL     1      -3.648  -5.516  -2.540  0.00  0.00    -0.062 C 
ATOM     18  H   UNL     1      -4.548  -4.899  -2.328  0.00  0.00    +0.023 HD
ATOM     19  H   UNL     1      -3.948  -6.584  -2.479  0.00  0.00    +0.023 HD
ATOM     20  H   UNL     1      -3.303  -5.305  -3.574  0.00  0.00    +0.023 HD
ENDBRANCH  15  17
BRANCH  15  21
ATOM     21  C   UNL     1      -1.341  -6.150  -1.766  0.00  0.00    -0.062 C 
ATOM     22  H   UNL     1      -0.969  -6.050  -2.808  0.00  0.00    +0.023 HD
ATOM     23  H   UNL     1      -0.507  -5.931  -1.069  0.00  0.00    +0.023 HD
ATOM     24  H   UNL     1      -1.645  -7.207  -1.608  0.00  0.00    +0.023 HD
ENDBRANCH  15  21
ENDBRANCH   9  15
ENDBRANCH   6   9
ENDBRANCH   1   3
BRANCH   1  25
ATOM     25  C   UNL     1       0.315   0.843   1.556  0.00  0.00    +0.129 C 
ATOM     26  H   UNL     1       1.090   0.102   1.867  0.00  0.00    +0.066 HD
BRANCH  25  27
ATOM     27  O   UNL     1       0.367   1.921   2.456  0.00  0.00    -0.385 OA
ATOM     28  H   UNL     1       0.469   1.538   3.367  0.00  0.00    +0.210 HD
ENDBRANCH  25  27
BRANCH  25  29
ATOM     29  C   UNL     1       0.713   1.370   0.145  0.00  0.00    +0.119 C 
ATOM     30  H   UNL     1      -0.079   2.071  -0.209  0.00  0.00    +0.065 HD
BRANCH  29  31
ATOM     31  O   UNL     1       1.926   2.075   0.241  0.00  0.00    -0.386 OA
ATOM     32  H   UNL     1       1.709   3.007   0.509  0.00  0.00    +0.210 HD
ENDBRANCH  29  31
BRANCH  29  33
ATOM     33  C   UNL     1       0.842   0.263  -0.935  0.00  0.00    +0.159 C 
ATOM     34  H   UNL     1      -0.157  -0.201  -1.049  0.00  0.00    +0.072 HD
BRANCH  33  38
ATOM     35  C   UNL     1       4.139  -1.479   0.225  0.00  0.00    +0.222 C 
ATOM     36  O   UNL     1       3.739  -2.606   0.628  0.00  0.00    -0.275 OA
ATOM     37  N   UNL     1       3.214  -0.536  -0.343  0.00  0.00    -0.254 N 
ATOM     38  C   UNL     1       1.827  -0.832  -0.582  0.00  0.00    +0.250 C 
ATOM     39  O   UNL     1       1.419  -2.024  -0.534  0.00  0.00    -0.272 OA
ATOM     40  H   UNL     1       3.577   0.408  -0.599  0.00  0.00    +0.158 HD
BRANCH  35  41
ATOM     41  C   UNL     1       5.604  -1.124   0.350  0.00  0.00    +0.035 C 
ATOM     42  H   UNL     1       5.756  -0.085  -0.019  0.00  0.00    +0.039 HD
BRANCH  41  43
ATOM     43  C   UNL     1       5.991  -1.137   1.838  0.00  0.00    -0.054 C 
ATOM     44  H   UNL     1       6.016  -2.177   2.229  0.00  0.00    +0.024 HD
ATOM     45  H   UNL     1       5.258  -0.549   2.432  0.00  0.00    +0.024 HD
ATOM     46  H   UNL     1       6.984  -0.666   1.988  0.00  0.00    +0.024 HD
ENDBRANCH  41  43
BRANCH  41  47
ATOM     47  C   UNL     1       6.484  -2.082  -0.508  0.00  0.00    -0.036 C 
ATOM     48  H   UNL     1       6.336  -3.126  -0.154  0.00  0.00    +0.030 HD
BRANCH  47  49
ATOM     49  C   UNL     1       6.081  -2.026  -1.992  0.00  0.00    -0.062 C 
ATOM     50  H   UNL     1       6.727  -2.699  -2.595  0.00  0.00    +0.023 HD
ATOM     51  H   UNL     1       6.178  -0.990  -2.385  0.00  0.00    +0.023 HD
ATOM     52  H   UNL     1       5.033  -2.365  -2.130  0.00  0.00    +0.023 HD
ENDBRANCH  47  49
BRANCH  47  53
ATOM     53  C   UNL     1       7.982  -1.753  -0.383  0.00  0.00    -0.062 C 
ATOM     54  H   UNL     1       8.170  -0.683  -0.618  0.00  0.00    +0.023 HD
ATOM     55  H   UNL     1       8.348  -1.973   0.641  0.00  0.00    +0.023 HD
ATOM     56  H   UNL     1       8.577  -2.381  -1.080  0.00  0.00    +0.023 HD
ENDBRANCH  47  53
ENDBRANCH  41  47
ENDBRANCH  35  41
ENDBRANCH  33  38
BRANCH  33  57
ATOM     57  O   UNL     1       1.149   0.815  -2.192  0.00  0.00    -0.380 OA
ATOM     58  H   UNL     1       2.036   1.254  -2.131  0.00  0.00    +0.211 HD
ENDBRANCH  33  57
ENDBRANCH  29  33
ENDBRANCH  25  29
ENDBRANCH   1  25
BRANCH   1  59
ATOM     59  O   UNL     1      -2.035   0.826   0.766  0.00  0.00    -0.477 OA
BRANCH  59  60
ATOM     60  C   UNL     1      -2.650   2.071   0.974  0.00  0.00    +0.122 A 
ATOM     61  C   UNL     1      -3.335   2.649  -0.099  0.00  0.00    -0.019 A 
ATOM     62  C   UNL     1      -3.962   3.890   0.039  0.00  0.00    -0.049 A 
ATOM     63  C   UNL     1      -3.914   4.582   1.263  0.00  0.00    +0.001 A 
ATOM     64  C   UNL     1      -3.244   3.990   2.347  0.00  0.00    -0.049 A 
ATOM     65  C   UNL     1      -2.616   2.749   2.207  0.00  0.00    -0.019 A 
ATOM     66  H   UNL     1      -3.382   2.131  -1.048  0.00  0.00    +0.065 HD
ATOM     67  H   UNL     1      -4.502   4.290  -0.809  0.00  0.00    +0.063 HD
ATOM     68  H   UNL     1      -3.195   4.492   3.305  0.00  0.00    +0.063 HD
ATOM     69  H   UNL     1      -2.122   2.329   3.069  0.00  0.00    +0.065 HD
BRANCH  63  70
ATOM     70  C   UNL     1      -4.579   5.900   1.434  0.00  0.00    +0.071 A 
ATOM     71  C   UNL     1      -4.740   6.794   0.359  0.00  0.00    -0.036 A 
ATOM     72  C   UNL     1      -5.368   8.023   0.573  0.00  0.00    -0.058 A 
ATOM     73  C   UNL     1      -5.825   8.359   1.847  0.00  0.00    -0.044 A 
ATOM     74  C   UNL     1      -5.642   7.457   2.896  0.00  0.00    +0.028 A 
ATOM     75  N   UNL     1      -5.029   6.265   2.669  0.00  0.00    -0.255 NA
ATOM     76  H   UNL     1      -4.366   6.562  -0.629  0.00  0.00    +0.064 HD
ATOM     77  H   UNL     1      -5.493   8.717  -0.248  0.00  0.00    +0.062 HD
ATOM     78  H   UNL     1      -6.311   9.310   2.021  0.00  0.00    +0.063 HD
ATOM     79  H   UNL     1      -5.986   7.705   3.891  0.00  0.00    +0.083 HD
ENDBRANCH  63  70
ENDBRANCH  59  60
ENDBRANCH   1  59
TORSDOF 21
