REMARK  Name = 
REMARK  14 active torsions:
REMARK  status: ('A' for Active; 'I' for Inactive)
REMARK    1  A    between atoms: C_1  and  C_2
REMARK    2  A    between atoms: C_2  and  C_3
REMARK    3  A    between atoms: C_2  and  C_4
REMARK    4  A    between atoms: C_2  and  N_5
REMARK    5  A    between atoms: C_6  and  C_8
REMARK    6  A    between atoms: C_13  and  C_14
REMARK    7  A    between atoms: C_14  and  C_15
REMARK    8  A    between atoms: C_15  and  O_16
REMARK    9  A    between atoms: C_15  and  C_17
REMARK   10  A    between atoms: C_17  and  C_18
REMARK   11  A    between atoms: C_17  and  N_30
REMARK   12  A    between atoms: C_18  and  S_19
REMARK   13  A    between atoms: S_19  and  C_20
REMARK   14  A    between atoms: C_31  and  C_33
REMARK                            x       y       z     vdW  Elec       q    Type
REMARK                         _______ _______ _______ _____ _____    ______ ____
ROOT
ATOM      1  C   UNL     1      -0.033   0.511  -0.096  0.00  0.00    +0.059 C 
ATOM      2  H   UNL     1      -0.247   0.506  -1.188  0.00  0.00    +0.053 HD
ENDROOT
BRANCH   1   3
ATOM      3  N   UNL     1       0.548   1.818   0.252  0.00  0.00    -0.305 N 
ATOM      4  C   UNL     1       0.912   2.233   1.581  0.00  0.00    +0.245 C 
ATOM      5  O   UNL     1       0.753   1.460   2.563  0.00  0.00    -0.270 OA
ATOM      6  H   UNL     1       0.693   2.497  -0.528  0.00  0.00    +0.149 HD
BRANCH   4   7
ATOM      7  C   UNL     1       1.416   3.600   1.819  0.00  0.00    +0.047 A 
ATOM      8  C   UNL     1       0.726   4.409   2.733  0.00  0.00    -0.031 A 
ATOM      9  C   UNL     1       1.132   5.726   2.944  0.00  0.00    +0.029 A 
ATOM     10  N   UNL     1       2.201   6.227   2.275  0.00  0.00    -0.255 NA
ATOM     11  C   UNL     1       2.914   5.475   1.395  0.00  0.00    +0.072 A 
ATOM     12  C   UNL     1       4.020   6.035   0.745  0.00  0.00    -0.036 A 
ATOM     13  C   UNL     1       4.780   5.263  -0.136  0.00  0.00    -0.060 A 
ATOM     14  C   UNL     1       4.446   3.928  -0.365  0.00  0.00    -0.061 A 
ATOM     15  C   UNL     1       3.342   3.358   0.275  0.00  0.00    -0.052 A 
ATOM     16  C   UNL     1       2.547   4.128   1.149  0.00  0.00    +0.012 A 
ATOM     17  H   UNL     1      -0.140   4.030   3.262  0.00  0.00    +0.064 HD
ATOM     18  H   UNL     1       0.591   6.355   3.639  0.00  0.00    +0.083 HD
ATOM     19  H   UNL     1       4.297   7.066   0.928  0.00  0.00    +0.064 HD
ATOM     20  H   UNL     1       5.637   5.699  -0.634  0.00  0.00    +0.062 HD
ATOM     21  H   UNL     1       5.048   3.329  -1.036  0.00  0.00    +0.062 HD
ATOM     22  H   UNL     1       3.131   2.314   0.095  0.00  0.00    +0.062 HD
ENDBRANCH   4   7
ENDBRANCH   1   3
BRANCH   1  23
ATOM     23  C   UNL     1       0.985  -0.614   0.163  0.00  0.00    +0.019 C 
ATOM     24  H   UNL     1       1.261  -0.642   1.237  0.00  0.00    +0.040 HD
ATOM     25  H   UNL     1       0.545  -1.598  -0.107  0.00  0.00    +0.040 HD
BRANCH  23  26
ATOM     26  S   UNL     1       2.473  -0.377  -0.871  0.00  0.00    -0.123 S 
BRANCH  26  27
ATOM     27  C   UNL     1       3.461  -1.548   0.058  0.00  0.00    +0.009 A 
ATOM     28  C   UNL     1       4.228  -1.106   1.141  0.00  0.00    -0.048 A 
ATOM     29  C   UNL     1       5.000  -2.011   1.874  0.00  0.00    -0.053 A 
ATOM     30  C   UNL     1       5.011  -3.370   1.526  0.00  0.00    -0.018 A 
ATOM     31  C   UNL     1       5.781  -4.290   2.255  0.00  0.00    -0.054 A 
ATOM     32  C   UNL     1       5.784  -5.642   1.898  0.00  0.00    -0.061 A 
ATOM     33  C   UNL     1       5.021  -6.085   0.814  0.00  0.00    -0.061 A 
ATOM     34  C   UNL     1       4.249  -5.179   0.080  0.00  0.00    -0.054 A 
ATOM     35  C   UNL     1       4.238  -3.820   0.427  0.00  0.00    -0.017 A 
ATOM     36  C   UNL     1       3.467  -2.901  -0.302  0.00  0.00    -0.041 A 
ATOM     37  H   UNL     1       4.223  -0.059   1.419  0.00  0.00    +0.063 HD
ATOM     38  H   UNL     1       5.585  -1.650   2.712  0.00  0.00    +0.062 HD
ATOM     39  H   UNL     1       6.379  -3.965   3.099  0.00  0.00    +0.062 HD
ATOM     40  H   UNL     1       6.379  -6.348   2.463  0.00  0.00    +0.062 HD
ATOM     41  H   UNL     1       5.027  -7.132   0.543  0.00  0.00    +0.062 HD
ATOM     42  H   UNL     1       3.664  -5.541  -0.758  0.00  0.00    +0.062 HD
ATOM     43  H   UNL     1       2.870  -3.232  -1.143  0.00  0.00    +0.063 HD
ENDBRANCH  26  27
ENDBRANCH  23  26
ENDBRANCH   1  23
BRANCH   1  44
ATOM     44  C   UNL     1      -1.378   0.258   0.640  0.00  0.00    +0.078 C 
ATOM     45  H   UNL     1      -1.181   0.168   1.733  0.00  0.00    +0.062 HD
BRANCH  44  46
ATOM     46  C   UNL     1      -2.392   1.415   0.474  0.00  0.00    +0.001 C 
ATOM     47  H   UNL     1      -3.296   1.192   1.074  0.00  0.00    +0.034 HD
ATOM     48  H   UNL     1      -1.972   2.332   0.942  0.00  0.00    +0.034 HD
BRANCH  46  54
ATOM     49  C   UNL     1      -3.697   0.898  -1.698  0.00  0.00    +0.040 A 
ATOM     50  C   UNL     1      -3.912   1.164  -3.062  0.00  0.00    -0.049 A 
ATOM     51  C   UNL     1      -3.248   2.212  -3.698  0.00  0.00    -0.061 A 
ATOM     52  C   UNL     1      -2.364   3.015  -2.982  0.00  0.00    -0.061 A 
ATOM     53  C   UNL     1      -2.127   2.761  -1.631  0.00  0.00    -0.058 A 
ATOM     54  C   UNL     1      -2.770   1.696  -0.971  0.00  0.00    -0.033 A 
ATOM     55  H   UNL     1      -4.615   0.569  -3.633  0.00  0.00    +0.063 HD
ATOM     56  H   UNL     1      -3.429   2.410  -4.747  0.00  0.00    +0.062 HD
ATOM     57  H   UNL     1      -1.857   3.834  -3.475  0.00  0.00    +0.062 HD
ATOM     58  H   UNL     1      -1.435   3.401  -1.098  0.00  0.00    +0.062 HD
BRANCH  49  60
ATOM     59  N   UNL     1      -4.525  -1.489  -1.708  0.00  0.00    -0.307 N 
ATOM     60  C   UNL     1      -4.475  -0.195  -1.076  0.00  0.00    +0.245 C 
ATOM     61  O   UNL     1      -5.113   0.025  -0.013  0.00  0.00    -0.270 OA
ATOM     62  H   UNL     1      -3.939  -1.614  -2.565  0.00  0.00    +0.150 HD
BRANCH  59  63
ATOM     63  C   UNL     1      -5.312  -2.640  -1.224  0.00  0.00    +0.026 C 
BRANCH  63  64
ATOM     64  C   UNL     1      -6.812  -2.285  -1.192  0.00  0.00    -0.044 C 
ATOM     65  H   UNL     1      -7.139  -1.909  -2.185  0.00  0.00    +0.025 HD
ATOM     66  H   UNL     1      -7.420  -3.180  -0.936  0.00  0.00    +0.025 HD
ATOM     67  H   UNL     1      -7.031  -1.506  -0.434  0.00  0.00    +0.025 HD
ENDBRANCH  63  64
BRANCH  63  68
ATOM     68  C   UNL     1      -4.832  -3.063   0.178  0.00  0.00    -0.044 C 
ATOM     69  H   UNL     1      -5.026  -2.274   0.933  0.00  0.00    +0.025 HD
ATOM     70  H   UNL     1      -3.740  -3.271   0.164  0.00  0.00    +0.025 HD
ATOM     71  H   UNL     1      -5.360  -3.983   0.511  0.00  0.00    +0.025 HD
ENDBRANCH  63  68
BRANCH  63  72
ATOM     72  C   UNL     1      -5.111  -3.827  -2.188  0.00  0.00    -0.044 C 
ATOM     73  H   UNL     1      -5.446  -3.555  -3.212  0.00  0.00    +0.025 HD
ATOM     74  H   UNL     1      -5.691  -4.714  -1.854  0.00  0.00    +0.025 HD
ATOM     75  H   UNL     1      -4.037  -4.110  -2.237  0.00  0.00    +0.025 HD
ENDBRANCH  63  72
ENDBRANCH  59  63
ENDBRANCH  49  60
ENDBRANCH  46  54
ENDBRANCH  44  46
BRANCH  44  76
ATOM     76  O   UNL     1      -1.956  -0.935   0.171  0.00  0.00    -0.390 OA
ATOM     77  H   UNL     1      -1.704  -1.659   0.801  0.00  0.00    +0.210 HD
ENDBRANCH  44  76
ENDBRANCH   1  44
TORSDOF 14
