REMARK  Name = 
REMARK  16 active torsions:
REMARK  status: ('A' for Active; 'I' for Inactive)
REMARK    1  A    between atoms: C_1  and  C_2
REMARK    2  A    between atoms: C_3  and  O_4
REMARK    3  A    between atoms: C_8  and  C_9
REMARK    4  A    between atoms: N_11  and  C_12
REMARK    5  A    between atoms: C_12  and  C_13
REMARK    6  A    between atoms: C_12  and  C_35
REMARK    7  A    between atoms: C_13  and  C_14
REMARK    8  A    between atoms: C_14  and  O_15
REMARK    9  A    between atoms: C_14  and  C_16
REMARK   10  A    between atoms: C_16  and  C_17
REMARK   11  A    between atoms: C_16  and  N_24
REMARK   12  A    between atoms: C_17  and  C_18
REMARK   13  A    between atoms: C_25  and  C_27
REMARK   14  A    between atoms: C_31  and  O_32
REMARK   15  A    between atoms: C_33  and  C_34
REMARK   16  A    between atoms: C_35  and  C_36
REMARK                            x       y       z     vdW  Elec       q    Type
REMARK                         _______ _______ _______ _____ _____    ______ ____
ROOT
ATOM      1  C   UNL     1       0.557   0.031   0.838  0.00  0.00    +0.076 C 
ATOM      2  H   UNL     1       0.156  -0.417   1.773  0.00  0.00    +0.061 HD
ENDROOT
BRANCH   1   3
ATOM      3  C   UNL     1      -0.130  -0.690  -0.347  0.00  0.00    -0.006 C 
ATOM      4  H   UNL     1       0.299  -1.712  -0.418  0.00  0.00    +0.031 HD
ATOM      5  H   UNL     1       0.097  -0.164  -1.301  0.00  0.00    +0.031 HD
BRANCH   3   6
ATOM      6  C   UNL     1      -1.659  -0.818  -0.172  0.00  0.00    +0.030 C 
ATOM      7  H   UNL     1      -1.849  -1.393   0.762  0.00  0.00    +0.050 HD
BRANCH   6  10
ATOM      8  C   UNL     1      -3.349   0.803   0.829  0.00  0.00    +0.245 C 
ATOM      9  O   UNL     1      -3.803  -0.102   1.581  0.00  0.00    -0.270 OA
ATOM     10  N   UNL     1      -2.271   0.510  -0.075  0.00  0.00    -0.308 N 
ATOM     11  H   UNL     1      -2.024   1.219  -0.803  0.00  0.00    +0.149 HD
BRANCH   8  17
ATOM     12  C   UNL     1      -5.313   2.407   1.038  0.00  0.00    +0.003 A 
ATOM     13  C   UNL     1      -5.779   3.735   1.169  0.00  0.00    +0.120 A 
ATOM     14  C   UNL     1      -4.877   4.805   1.116  0.00  0.00    -0.020 A 
ATOM     15  C   UNL     1      -3.515   4.570   0.943  0.00  0.00    -0.058 A 
ATOM     16  C   UNL     1      -3.038   3.265   0.838  0.00  0.00    -0.049 A 
ATOM     17  C   UNL     1      -3.918   2.171   0.896  0.00  0.00    +0.043 A 
ATOM     18  H   UNL     1      -5.233   5.823   1.209  0.00  0.00    +0.065 HD
ATOM     19  H   UNL     1      -2.825   5.403   0.905  0.00  0.00    +0.062 HD
ATOM     20  H   UNL     1      -1.971   3.111   0.736  0.00  0.00    +0.063 HD
BRANCH  12  21
ATOM     21  C   UNL     1      -6.301   1.266   1.063  0.00  0.00    -0.036 C 
ATOM     22  H   UNL     1      -6.314   0.806   2.073  0.00  0.00    +0.028 HD
ATOM     23  H   UNL     1      -7.329   1.602   0.814  0.00  0.00    +0.028 HD
ATOM     24  H   UNL     1      -6.029   0.498   0.307  0.00  0.00    +0.028 HD
ENDBRANCH  12  21
BRANCH  13  25
ATOM     25  O   UNL     1      -7.138   3.991   1.352  0.00  0.00    -0.506 OA
ATOM     26  H   UNL     1      -7.494   4.935   1.448  0.00  0.00    +0.292 HD
ENDBRANCH  13  25
ENDBRANCH   8  17
ENDBRANCH   6  10
BRANCH   6  27
ATOM     27  C   UNL     1      -2.303  -1.573  -1.352  0.00  0.00    -0.009 C 
ATOM     28  H   UNL     1      -2.088  -1.036  -2.303  0.00  0.00    +0.033 HD
ATOM     29  H   UNL     1      -3.408  -1.567  -1.227  0.00  0.00    +0.033 HD
BRANCH  27  30
ATOM     30  C   UNL     1      -1.837  -3.004  -1.440  0.00  0.00    -0.046 A 
ATOM     31  C   UNL     1      -0.848  -3.375  -2.369  0.00  0.00    -0.059 A 
ATOM     32  C   UNL     1      -0.394  -4.696  -2.423  0.00  0.00    -0.062 A 
ATOM     33  C   UNL     1      -0.920  -5.654  -1.552  0.00  0.00    -0.062 A 
ATOM     34  C   UNL     1      -1.900  -5.292  -0.623  0.00  0.00    -0.062 A 
ATOM     35  C   UNL     1      -2.356  -3.972  -0.564  0.00  0.00    -0.059 A 
ATOM     36  H   UNL     1      -0.423  -2.641  -3.042  0.00  0.00    +0.062 HD
ATOM     37  H   UNL     1       0.369  -4.976  -3.138  0.00  0.00    +0.062 HD
ATOM     38  H   UNL     1      -0.566  -6.676  -1.595  0.00  0.00    +0.062 HD
ATOM     39  H   UNL     1      -2.303  -6.034   0.053  0.00  0.00    +0.062 HD
ATOM     40  H   UNL     1      -3.110  -3.702   0.165  0.00  0.00    +0.062 HD
ENDBRANCH  27  30
ENDBRANCH   6  27
ENDBRANCH   3   6
ENDBRANCH   1   3
BRANCH   1  41
ATOM     41  O   UNL     1       0.243   1.402   0.855  0.00  0.00    -0.390 OA
ATOM     42  H   UNL     1       0.514   1.788  -0.018  0.00  0.00    +0.210 HD
ENDBRANCH   1  41
BRANCH   1  43
ATOM     43  C   UNL     1       2.095  -0.194   0.839  0.00  0.00    +0.053 C 
ATOM     44  H   UNL     1       2.283  -1.280   0.993  0.00  0.00    +0.053 HD
BRANCH  43  45
ATOM     45  N   UNL     1       2.680   0.227  -0.440  0.00  0.00    -0.306 N 
ATOM     46  C   UNL     1       3.031  -0.700  -1.481  0.00  0.00    +0.245 C 
ATOM     47  O   UNL     1       2.875  -1.940  -1.310  0.00  0.00    -0.270 OA
ATOM     48  H   UNL     1       2.729   1.249  -0.649  0.00  0.00    +0.149 HD
BRANCH  46  49
ATOM     49  C   UNL     1       3.515  -0.207  -2.787  0.00  0.00    +0.043 A 
ATOM     50  C   UNL     1       2.883  -0.691  -3.944  0.00  0.00    -0.049 A 
ATOM     51  C   UNL     1       3.245  -0.215  -5.202  0.00  0.00    -0.058 A 
ATOM     52  C   UNL     1       4.233   0.759  -5.322  0.00  0.00    -0.020 A 
ATOM     53  C   UNL     1       4.889   1.251  -4.191  0.00  0.00    +0.120 A 
ATOM     54  C   UNL     1       4.568   0.741  -2.907  0.00  0.00    +0.003 A 
ATOM     55  H   UNL     1       2.088  -1.423  -3.869  0.00  0.00    +0.063 HD
ATOM     56  H   UNL     1       2.743  -0.588  -6.085  0.00  0.00    +0.062 HD
ATOM     57  H   UNL     1       4.489   1.139  -6.303  0.00  0.00    +0.065 HD
BRANCH  54  58
ATOM     58  C   UNL     1       5.362   1.192  -1.702  0.00  0.00    -0.036 C 
ATOM     59  H   UNL     1       6.446   1.207  -1.938  0.00  0.00    +0.028 HD
ATOM     60  H   UNL     1       5.255   0.500  -0.843  0.00  0.00    +0.028 HD
ATOM     61  H   UNL     1       5.035   2.207  -1.396  0.00  0.00    +0.028 HD
ENDBRANCH  54  58
BRANCH  53  62
ATOM     62  O   UNL     1       5.850   2.248  -4.377  0.00  0.00    -0.506 OA
ATOM     63  H   UNL     1       6.318   2.721  -3.615  0.00  0.00    +0.292 HD
ENDBRANCH  53  62
ENDBRANCH  46  49
ENDBRANCH  43  45
BRANCH  43  64
ATOM     64  C   UNL     1       2.801   0.557   1.988  0.00  0.00    -0.007 C 
ATOM     65  H   UNL     1       2.624   1.651   1.896  0.00  0.00    +0.033 HD
ATOM     66  H   UNL     1       3.899   0.408   1.893  0.00  0.00    +0.033 HD
BRANCH  64  67
ATOM     67  C   UNL     1       2.363   0.063   3.344  0.00  0.00    -0.046 A 
ATOM     68  C   UNL     1       2.869  -1.144   3.853  0.00  0.00    -0.059 A 
ATOM     69  C   UNL     1       2.441  -1.618   5.097  0.00  0.00    -0.062 A 
ATOM     70  C   UNL     1       1.503  -0.894   5.838  0.00  0.00    -0.062 A 
ATOM     71  C   UNL     1       0.990   0.305   5.335  0.00  0.00    -0.062 A 
ATOM     72  C   UNL     1       1.416   0.783   4.092  0.00  0.00    -0.059 A 
ATOM     73  H   UNL     1       3.592  -1.718   3.286  0.00  0.00    +0.062 HD
ATOM     74  H   UNL     1       2.834  -2.549   5.486  0.00  0.00    +0.062 HD
ATOM     75  H   UNL     1       1.171  -1.263   6.800  0.00  0.00    +0.062 HD
ATOM     76  H   UNL     1       0.260   0.863   5.907  0.00  0.00    +0.062 HD
ATOM     77  H   UNL     1       1.004   1.710   3.712  0.00  0.00    +0.062 HD
ENDBRANCH  64  67
ENDBRANCH  43  64
ENDBRANCH   1  43
TORSDOF 16
