REMARK  Name = 
REMARK  17 active torsions:
REMARK  status: ('A' for Active; 'I' for Inactive)
REMARK    1  A    between atoms: C_1  and  C_2
REMARK    2  A    between atoms: C_2  and  C_3
REMARK    3  A    between atoms: C_2  and  C_4
REMARK    4  A    between atoms: C_4  and  C_5
REMARK    5  A    between atoms: C_5  and  C_6
REMARK    6  A    between atoms: C_6  and  C_7
REMARK    7  A    between atoms: C_10  and  O_11
REMARK    8  A    between atoms: C_17  and  S_18
REMARK    9  A    between atoms: S_18  and  C_19
REMARK   10  A    between atoms: C_21  and  C_22
REMARK   11  A    between atoms: C_23  and  N_24
REMARK   12  A    between atoms: C_25  and  C_27
REMARK   13  A    between atoms: C_34  and  C_35
REMARK   14  A    between atoms: C_35  and  C_36
REMARK   15  A    between atoms: C_35  and  C_37
REMARK   16  A    between atoms: C_35  and  C_38
REMARK   17  A    between atoms: C_39  and  O_40
REMARK                            x       y       z     vdW  Elec       q    Type
REMARK                         _______ _______ _______ _____ _____    ______ ____
ROOT
ATOM      1  S   UNL     1       0.477  -3.017  -1.600  0.00  0.00    -0.079 S 
ENDROOT
BRANCH   1   6
ATOM      2  C   UNL     1      -3.236  -1.042   0.539  0.00  0.00    +0.123 C 
ATOM      3  C   UNL     1      -1.906  -1.125   1.347  0.00  0.00    +0.051 C 
ATOM      4  C   UNL     1      -0.921  -2.041   0.686  0.00  0.00    +0.180 C 
ATOM      5  O   UNL     1      -0.108  -2.687   1.396  0.00  0.00    -0.291 OA
ATOM      6  C   UNL     1      -0.880  -2.137  -0.784  0.00  0.00    +0.135 C 
ATOM      7  C   UNL     1      -1.865  -1.558  -1.499  0.00  0.00    +0.297 C 
ATOM      8  O   UNL     1      -2.913  -0.886  -0.851  0.00  0.00    -0.456 OA
ATOM      9  H   UNL     1      -2.095  -1.424   2.400  0.00  0.00    +0.038 HD
ATOM     10  H   UNL     1      -1.414  -0.128   1.386  0.00  0.00    +0.038 HD
BRANCH   2  11
ATOM     11  C   UNL     1      -3.949   0.263   1.012  0.00  0.00    -0.008 C 
ATOM     12  H   UNL     1      -3.251   1.120   0.875  0.00  0.00    +0.031 HD
ATOM     13  H   UNL     1      -4.168   0.192   2.102  0.00  0.00    +0.031 HD
BRANCH  11  14
ATOM     14  C   UNL     1      -5.248   0.610   0.269  0.00  0.00    -0.024 C 
ATOM     15  H   UNL     1      -6.038  -0.131   0.518  0.00  0.00    +0.031 HD
ATOM     16  H   UNL     1      -5.080   0.580  -0.829  0.00  0.00    +0.031 HD
BRANCH  14  17
ATOM     17  C   UNL     1      -5.732   1.980   0.664  0.00  0.00    -0.047 A 
ATOM     18  C   UNL     1      -5.320   3.112  -0.059  0.00  0.00    -0.055 A 
ATOM     19  C   UNL     1      -5.742   4.388   0.329  0.00  0.00    -0.020 A 
ATOM     20  C   UNL     1      -6.570   4.545   1.449  0.00  0.00    +0.117 A 
ATOM     21  C   UNL     1      -6.971   3.422   2.179  0.00  0.00    -0.020 A 
ATOM     22  C   UNL     1      -6.550   2.145   1.793  0.00  0.00    -0.055 A 
ATOM     23  H   UNL     1      -4.672   3.007  -0.920  0.00  0.00    +0.062 HD
ATOM     24  H   UNL     1      -5.422   5.253  -0.238  0.00  0.00    +0.065 HD
ATOM     25  H   UNL     1      -7.605   3.538   3.048  0.00  0.00    +0.065 HD
ATOM     26  H   UNL     1      -6.861   1.286   2.375  0.00  0.00    +0.062 HD
BRANCH  20  27
ATOM     27  O   UNL     1      -6.996   5.811   1.845  0.00  0.00    -0.507 OA
ATOM     28  H   UNL     1      -6.722   6.645   1.337  0.00  0.00    +0.292 HD
ENDBRANCH  20  27
ENDBRANCH  14  17
ENDBRANCH  11  14
ENDBRANCH   2  11
BRANCH   2  29
ATOM     29  C   UNL     1      -4.188  -2.303   0.745  0.00  0.00    -0.006 C 
ATOM     30  H   UNL     1      -4.927  -2.054   1.539  0.00  0.00    +0.033 HD
BRANCH  29  31
ATOM     31  C   UNL     1      -3.503  -3.598   1.227  0.00  0.00    -0.059 C 
ATOM     32  H   UNL     1      -2.766  -3.963   0.483  0.00  0.00    +0.023 HD
ATOM     33  H   UNL     1      -4.262  -4.398   1.367  0.00  0.00    +0.023 HD
ATOM     34  H   UNL     1      -3.014  -3.460   2.212  0.00  0.00    +0.023 HD
ENDBRANCH  29  31
BRANCH  29  35
ATOM     35  C   UNL     1      -4.996  -2.653  -0.525  0.00  0.00    -0.059 C 
ATOM     36  H   UNL     1      -5.790  -3.390  -0.280  0.00  0.00    +0.023 HD
ATOM     37  H   UNL     1      -4.335  -3.099  -1.299  0.00  0.00    +0.023 HD
ATOM     38  H   UNL     1      -5.489  -1.769  -0.969  0.00  0.00    +0.023 HD
ENDBRANCH  29  35
ENDBRANCH   2  29
BRANCH   7  39
ATOM     39  O   UNL     1      -1.888  -1.592  -2.895  0.00  0.00    -0.479 OA
ATOM     40  H   UNL     1      -1.193  -2.068  -3.456  0.00  0.00    +0.295 HD
ENDBRANCH   7  39
ENDBRANCH   1   6
BRANCH   1  41
ATOM     41  C   UNL     1       1.698  -1.695  -1.402  0.00  0.00    +0.017 A 
ATOM     42  C   UNL     1       1.383  -0.466  -2.001  0.00  0.00    -0.043 A 
ATOM     43  C   UNL     1       2.169   0.670  -1.801  0.00  0.00    -0.028 A 
ATOM     44  C   UNL     1       3.302   0.584  -0.977  0.00  0.00    +0.037 A 
ATOM     45  C   UNL     1       3.662  -0.655  -0.426  0.00  0.00    -0.035 A 
ATOM     46  C   UNL     1       2.924  -1.842  -0.676  0.00  0.00    -0.026 A 
ATOM     47  H   UNL     1       0.491  -0.385  -2.607  0.00  0.00    +0.063 HD
ATOM     48  H   UNL     1       4.534  -0.661   0.206  0.00  0.00    +0.064 HD
BRANCH  44  49
ATOM     49  N   UNL     1       4.079   1.759  -0.678  0.00  0.00    -0.281 N 
ATOM     50  C   UNL     1       5.516   1.758  -0.641  0.00  0.00    +0.250 C 
ATOM     51  O   UNL     1       6.154   0.827  -1.206  0.00  0.00    -0.270 OA
ATOM     52  H   UNL     1       3.582   2.671  -0.578  0.00  0.00    +0.155 HD
BRANCH  50  53
ATOM     53  C   UNL     1       6.263   2.858   0.014  0.00  0.00    +0.055 A 
ATOM     54  C   UNL     1       5.654   3.682   0.977  0.00  0.00    -0.047 A 
ATOM     55  C   UNL     1       6.382   4.707   1.585  0.00  0.00    -0.043 A 
ATOM     56  C   UNL     1       7.718   4.899   1.233  0.00  0.00    +0.028 A 
ATOM     57  N   UNL     1       8.301   4.091   0.309  0.00  0.00    -0.263 NA
ATOM     58  C   UNL     1       7.615   3.086  -0.297  0.00  0.00    +0.040 A 
ATOM     59  H   UNL     1       4.627   3.528   1.277  0.00  0.00    +0.063 HD
ATOM     60  H   UNL     1       5.916   5.342   2.327  0.00  0.00    +0.063 HD
ATOM     61  H   UNL     1       8.294   5.689   1.698  0.00  0.00    +0.083 HD
ATOM     62  H   UNL     1       8.125   2.473  -1.029  0.00  0.00    +0.084 HD
ENDBRANCH  50  53
ENDBRANCH  44  49
BRANCH  43  63
ATOM     63  C   UNL     1       1.759   1.974  -2.433  0.00  0.00    -0.038 C 
ATOM     64  H   UNL     1       2.641   2.473  -2.887  0.00  0.00    +0.028 HD
ATOM     65  H   UNL     1       1.316   2.637  -1.661  0.00  0.00    +0.028 HD
ATOM     66  H   UNL     1       1.010   1.818  -3.238  0.00  0.00    +0.028 HD
ENDBRANCH  43  63
BRANCH  46  67
ATOM     67  C   UNL     1       3.512  -3.229  -0.259  0.00  0.00    -0.012 C 
BRANCH  67  68
ATOM     68  C   UNL     1       3.648  -4.143  -1.500  0.00  0.00    -0.056 C 
ATOM     69  H   UNL     1       2.673  -4.451  -1.917  0.00  0.00    +0.024 HD
ATOM     70  H   UNL     1       4.220  -3.624  -2.300  0.00  0.00    +0.024 HD
ATOM     71  H   UNL     1       4.185  -5.083  -1.245  0.00  0.00    +0.024 HD
ENDBRANCH  67  68
BRANCH  67  72
ATOM     72  C   UNL     1       2.636  -3.916   0.809  0.00  0.00    -0.056 C 
ATOM     73  H   UNL     1       2.443  -3.218   1.652  0.00  0.00    +0.024 HD
ATOM     74  H   UNL     1       1.675  -4.275   0.402  0.00  0.00    +0.024 HD
ATOM     75  H   UNL     1       3.145  -4.815   1.220  0.00  0.00    +0.024 HD
ENDBRANCH  67  72
BRANCH  67  76
ATOM     76  C   UNL     1       4.939  -3.122   0.349  0.00  0.00    -0.056 C 
ATOM     77  H   UNL     1       5.356  -4.128   0.574  0.00  0.00    +0.024 HD
ATOM     78  H   UNL     1       4.924  -2.564   1.310  0.00  0.00    +0.024 HD
ATOM     79  H   UNL     1       5.639  -2.629  -0.360  0.00  0.00    +0.024 HD
ENDBRANCH  67  76
ENDBRANCH  46  67
ENDBRANCH   1  41
TORSDOF 17
