REMARK  Name = 
REMARK  17 active torsions:
REMARK  status: ('A' for Active; 'I' for Inactive)
REMARK    1  A    between atoms: C_1  and  O_2
REMARK    2  A    between atoms: O_2  and  C_3
REMARK    3  A    between atoms: C_6  and  S_7
REMARK    4  A    between atoms: S_7  and  N_10
REMARK    5  A    between atoms: N_10  and  C_11
REMARK    6  A    between atoms: N_10  and  C_15
REMARK    7  A    between atoms: C_11  and  C_12
REMARK    8  A    between atoms: C_12  and  C_13
REMARK    9  A    between atoms: C_12  and  C_14
REMARK   10  A    between atoms: C_15  and  C_16
REMARK   11  A    between atoms: C_16  and  O_17
REMARK   12  A    between atoms: C_16  and  C_18
REMARK   13  A    between atoms: C_18  and  C_19
REMARK   14  A    between atoms: C_18  and  N_26
REMARK   15  A    between atoms: C_19  and  C_20
REMARK   16  A    between atoms: C_27  and  O_29
REMARK   17  A    between atoms: O_29  and  C_30
REMARK                            x       y       z     vdW  Elec       q    Type
REMARK                         _______ _______ _______ _____ _____    ______ ____
ROOT
ATOM      1  C   UNL     1      -0.746  -1.846   0.739  0.00  0.00    +0.057 C 
ATOM      2  H   UNL     1      -0.374  -1.584   1.755  0.00  0.00    +0.053 HD
ENDROOT
BRANCH   1   3
ATOM      3  N   UNL     1      -2.212  -1.829   0.768  0.00  0.00    -0.275 N 
ATOM      4  C   UNL     1      -2.937  -0.950   1.635  0.00  0.00    +0.401 C 
ATOM      5  O   UNL     1      -2.404  -0.514   2.693  0.00  0.00    -0.226 OA
ATOM      6  H   UNL     1      -2.733  -2.192  -0.060  0.00  0.00    +0.152 HD
BRANCH   4   7
ATOM      7  O   UNL     1      -4.228  -0.549   1.275  0.00  0.00    -0.444 OA
BRANCH   7   8
ATOM      8  C   UNL     1      -4.944   0.491   1.946  0.00  0.00    +0.135 C 
ATOM      9  C   UNL     1      -6.420   0.365   1.625  0.00  0.00    +0.088 C 
ATOM     10  O   UNL     1      -6.693   1.148   0.491  0.00  0.00    -0.347 OA
ATOM     11  C   UNL     1      -5.828   2.257   0.550  0.00  0.00    +0.165 C 
ATOM     12  O   UNL     1      -5.456   2.616  -0.771  0.00  0.00    -0.351 OA
ATOM     13  C   UNL     1      -4.571   3.723  -0.740  0.00  0.00    +0.051 C 
ATOM     14  C   UNL     1      -3.226   3.364  -0.073  0.00  0.00    -0.029 C 
ATOM     15  C   UNL     1      -3.293   2.004   0.626  0.00  0.00    -0.040 C 
ATOM     16  C   UNL     1      -4.611   1.883   1.418  0.00  0.00    +0.049 C 
ATOM     17  H   UNL     1      -4.791   0.420   3.046  0.00  0.00    +0.076 HD
ATOM     18  H   UNL     1      -7.032   0.732   2.479  0.00  0.00    +0.060 HD
ATOM     19  H   UNL     1      -6.699  -0.692   1.428  0.00  0.00    +0.060 HD
ATOM     20  H   UNL     1      -6.388   3.098   1.024  0.00  0.00    +0.091 HD
ATOM     21  H   UNL     1      -5.043   4.590  -0.223  0.00  0.00    +0.056 HD
ATOM     22  H   UNL     1      -4.381   4.046  -1.785  0.00  0.00    +0.056 HD
ATOM     23  H   UNL     1      -2.417   3.339  -0.835  0.00  0.00    +0.029 HD
ATOM     24  H   UNL     1      -2.964   4.148   0.671  0.00  0.00    +0.029 HD
ATOM     25  H   UNL     1      -3.235   1.216  -0.157  0.00  0.00    +0.027 HD
ATOM     26  H   UNL     1      -2.423   1.893   1.307  0.00  0.00    +0.027 HD
ATOM     27  H   UNL     1      -4.562   2.586   2.281  0.00  0.00    +0.039 HD
ENDBRANCH   7   8
ENDBRANCH   4   7
ENDBRANCH   1   3
BRANCH   1  28
ATOM     28  C   UNL     1      -0.209  -3.277   0.471  0.00  0.00    -0.007 C 
ATOM     29  H   UNL     1       0.895  -3.288   0.596  0.00  0.00    +0.033 HD
ATOM     30  H   UNL     1      -0.597  -3.948   1.269  0.00  0.00    +0.033 HD
BRANCH  28  31
ATOM     31  C   UNL     1      -0.577  -3.864  -0.873  0.00  0.00    -0.046 A 
ATOM     32  C   UNL     1      -1.812  -4.510  -1.054  0.00  0.00    -0.059 A 
ATOM     33  C   UNL     1      -2.151  -5.050  -2.299  0.00  0.00    -0.062 A 
ATOM     34  C   UNL     1      -1.255  -4.964  -3.367  0.00  0.00    -0.062 A 
ATOM     35  C   UNL     1      -0.015  -4.347  -3.190  0.00  0.00    -0.062 A 
ATOM     36  C   UNL     1       0.328  -3.807  -1.947  0.00  0.00    -0.059 A 
ATOM     37  H   UNL     1      -2.512  -4.597  -0.233  0.00  0.00    +0.062 HD
ATOM     38  H   UNL     1      -3.108  -5.539  -2.433  0.00  0.00    +0.062 HD
ATOM     39  H   UNL     1      -1.519  -5.383  -4.330  0.00  0.00    +0.062 HD
ATOM     40  H   UNL     1       0.684  -4.291  -4.015  0.00  0.00    +0.062 HD
ATOM     41  H   UNL     1       1.300  -3.349  -1.825  0.00  0.00    +0.062 HD
ENDBRANCH  28  31
ENDBRANCH   1  28
BRANCH   1  42
ATOM     42  C   UNL     1      -0.234  -0.741  -0.225  0.00  0.00    +0.088 C 
ATOM     43  H   UNL     1      -0.712   0.215   0.090  0.00  0.00    +0.063 HD
BRANCH  42  44
ATOM     44  C   UNL     1       1.284  -0.531  -0.133  0.00  0.00    +0.048 C 
ATOM     45  H   UNL     1       1.790  -1.438  -0.523  0.00  0.00    +0.047 HD
ATOM     46  H   UNL     1       1.592  -0.450   0.931  0.00  0.00    +0.047 HD
BRANCH  44  47
ATOM     47  N   UNL     1       1.667   0.675  -0.903  0.00  0.00    -0.174 NA
BRANCH  47  48
ATOM     48  C   UNL     1       2.907   0.475  -1.679  0.00  0.00    +0.023 C 
ATOM     49  H   UNL     1       3.655  -0.091  -1.079  0.00  0.00    +0.045 HD
ATOM     50  H   UNL     1       3.372   1.453  -1.934  0.00  0.00    +0.045 HD
BRANCH  48  51
ATOM     51  C   UNL     1       2.615  -0.257  -3.007  0.00  0.00    -0.032 C 
ATOM     52  H   UNL     1       2.106  -1.221  -2.797  0.00  0.00    +0.031 HD
BRANCH  51  53
ATOM     53  C   UNL     1       3.924  -0.575  -3.738  0.00  0.00    -0.061 C 
ATOM     54  H   UNL     1       4.571  -1.216  -3.102  0.00  0.00    +0.023 HD
ATOM     55  H   UNL     1       3.713  -1.127  -4.679  0.00  0.00    +0.023 HD
ATOM     56  H   UNL     1       4.474   0.358  -3.984  0.00  0.00    +0.023 HD
ENDBRANCH  51  53
BRANCH  51  57
ATOM     57  C   UNL     1       1.694   0.579  -3.907  0.00  0.00    -0.061 C 
ATOM     58  H   UNL     1       1.486   0.034  -4.853  0.00  0.00    +0.023 HD
ATOM     59  H   UNL     1       0.723   0.766  -3.402  0.00  0.00    +0.023 HD
ATOM     60  H   UNL     1       2.165   1.555  -4.152  0.00  0.00    +0.023 HD
ENDBRANCH  51  57
ENDBRANCH  48  51
ENDBRANCH  47  48
BRANCH  47  61
ATOM     61  S   UNL     1       1.833   2.063   0.153  0.00  0.00    +0.061 S 
ATOM     62  O   UNL     1       0.585   2.233   0.975  0.00  0.00    -0.153 OA
ATOM     63  O   UNL     1       2.011   3.303  -0.678  0.00  0.00    -0.153 OA
BRANCH  61  67
ATOM     64  C   UNL     1       5.438   1.585   2.938  0.00  0.00    +0.120 A 
ATOM     65  C   UNL     1       5.599   2.112   1.651  0.00  0.00    -0.018 A 
ATOM     66  C   UNL     1       4.499   2.263   0.803  0.00  0.00    -0.032 A 
ATOM     67  C   UNL     1       3.219   1.884   1.231  0.00  0.00    +0.106 A 
ATOM     68  C   UNL     1       3.051   1.361   2.521  0.00  0.00    -0.032 A 
ATOM     69  C   UNL     1       4.152   1.210   3.370  0.00  0.00    -0.018 A 
ATOM     70  H   UNL     1       6.582   2.405   1.307  0.00  0.00    +0.065 HD
ATOM     71  H   UNL     1       4.647   2.674  -0.187  0.00  0.00    +0.064 HD
ATOM     72  H   UNL     1       2.070   1.067   2.870  0.00  0.00    +0.064 HD
ATOM     73  H   UNL     1       3.991   0.800   4.358  0.00  0.00    +0.065 HD
BRANCH  64  74
ATOM     74  O   UNL     1       6.574   1.452   3.751  0.00  0.00    -0.495 OA
BRANCH  74  75
ATOM     75  C   UNL     1       6.557   0.932   5.076  0.00  0.00    +0.079 C 
ATOM     76  H   UNL     1       6.184  -0.115   5.071  0.00  0.00    +0.066 HD
ATOM     77  H   UNL     1       5.914   1.563   5.726  0.00  0.00    +0.066 HD
ATOM     78  H   UNL     1       7.589   0.940   5.482  0.00  0.00    +0.066 HD
ENDBRANCH  74  75
ENDBRANCH  64  74
ENDBRANCH  61  67
ENDBRANCH  47  61
ENDBRANCH  44  47
ENDBRANCH  42  44
BRANCH  42  79
ATOM     79  O   UNL     1      -0.591  -1.016  -1.555  0.00  0.00    -0.389 OA
ATOM     80  H   UNL     1      -1.533  -0.725  -1.673  0.00  0.00    +0.210 HD
ENDBRANCH  42  79
ENDBRANCH   1  42
TORSDOF 17
