REMARK  Name = 
REMARK  18 active torsions:
REMARK  status: ('A' for Active; 'I' for Inactive)
REMARK    1  A    between atoms: C_1  and  C_2
REMARK    2  A    between atoms: C_2  and  C_3
REMARK    3  A    between atoms: C_2  and  C_4
REMARK    4  A    between atoms: C_4  and  N_5
REMARK    5  A    between atoms: C_4  and  C_41
REMARK    6  A    between atoms: C_6  and  C_8
REMARK    7  A    between atoms: C_8  and  C_9
REMARK    8  A    between atoms: C_11  and  C_12
REMARK    9  A    between atoms: C_12  and  C_13
REMARK   10  A    between atoms: C_12  and  N_20
REMARK   11  A    between atoms: C_13  and  C_14
REMARK   12  A    between atoms: C_21  and  C_23
REMARK   13  A    between atoms: C_23  and  C_24
REMARK   14  A    between atoms: C_23  and  N_28
REMARK   15  A    between atoms: C_24  and  C_25
REMARK   16  A    between atoms: C_29  and  C_31
REMARK   17  A    between atoms: C_41  and  C_42
REMARK   18  A    between atoms: C_41  and  C_43
REMARK                            x       y       z     vdW  Elec       q    Type
REMARK                         _______ _______ _______ _____ _____    ______ ____
ROOT
ATOM      1  C   UNL     1      -1.288   1.888  -1.081  0.00  0.00    +0.056 C 
ATOM      2  H   UNL     1      -1.552   0.897  -1.500  0.00  0.00    +0.053 HD
ENDROOT
BRANCH   1   5
ATOM      3  C   UNL     1      -3.338   2.705  -2.553  0.00  0.00    +0.095 C 
ATOM      4  O   UNL     1      -2.087   2.808  -3.196  0.00  0.00    -0.366 OA
ATOM      5  C   UNL     1      -2.083   2.999  -1.799  0.00  0.00    +0.104 C 
ATOM      6  H   UNL     1      -3.992   3.569  -2.795  0.00  0.00    +0.063 HD
ATOM      7  H   UNL     1      -1.874   4.061  -1.555  0.00  0.00    +0.064 HD
BRANCH   3   8
ATOM      8  C   UNL     1      -3.904   1.283  -2.680  0.00  0.00    +0.053 C 
ATOM      9  H   UNL     1      -3.138   0.566  -3.047  0.00  0.00    +0.038 HD
ATOM     10  H   UNL     1      -4.709   1.297  -3.444  0.00  0.00    +0.038 HD
BRANCH   8  12
ATOM     11  N   UNL     1      -4.040  -0.397  -0.773  0.00  0.00    -0.312 N 
ATOM     12  C   UNL     1      -4.497   0.821  -1.383  0.00  0.00    +0.216 C 
ATOM     13  O   UNL     1      -5.401   1.509  -0.835  0.00  0.00    -0.276 OA
ATOM     14  H   UNL     1      -3.330  -0.969  -1.284  0.00  0.00    +0.149 HD
BRANCH  11  15
ATOM     15  C   UNL     1      -4.493  -0.841   0.553  0.00  0.00    +0.028 C 
ATOM     16  H   UNL     1      -4.611   0.078   1.171  0.00  0.00    +0.050 HD
BRANCH  15  17
ATOM     17  C   UNL     1      -3.353  -1.663   1.250  0.00  0.00    -0.028 C 
ATOM     18  H   UNL     1      -2.398  -1.169   0.962  0.00  0.00    +0.031 HD
BRANCH  17  19
ATOM     19  C   UNL     1      -3.384  -1.579   2.785  0.00  0.00    -0.061 C 
ATOM     20  H   UNL     1      -3.492  -0.526   3.120  0.00  0.00    +0.023 HD
ATOM     21  H   UNL     1      -2.427  -1.966   3.199  0.00  0.00    +0.023 HD
ATOM     22  H   UNL     1      -4.202  -2.184   3.220  0.00  0.00    +0.023 HD
ENDBRANCH  17  19
BRANCH  17  23
ATOM     23  C   UNL     1      -3.221  -3.119   0.787  0.00  0.00    -0.061 C 
ATOM     24  H   UNL     1      -4.016  -3.753   1.226  0.00  0.00    +0.023 HD
ATOM     25  H   UNL     1      -3.249  -3.185  -0.321  0.00  0.00    +0.023 HD
ATOM     26  H   UNL     1      -2.244  -3.529   1.123  0.00  0.00    +0.023 HD
ENDBRANCH  17  23
ENDBRANCH  15  17
BRANCH  15  27
ATOM     27  C   UNL     1      -5.925  -1.467   0.443  0.00  0.00    -0.028 C 
ATOM     28  H   UNL     1      -6.589  -0.635   0.116  0.00  0.00    +0.031 HD
BRANCH  27  29
ATOM     29  C   UNL     1      -6.081  -2.555  -0.635  0.00  0.00    -0.061 C 
ATOM     30  H   UNL     1      -7.161  -2.721  -0.838  0.00  0.00    +0.023 HD
ATOM     31  H   UNL     1      -5.609  -2.248  -1.591  0.00  0.00    +0.023 HD
ATOM     32  H   UNL     1      -5.658  -3.525  -0.315  0.00  0.00    +0.023 HD
ENDBRANCH  27  29
BRANCH  27  33
ATOM     33  C   UNL     1      -6.504  -1.939   1.781  0.00  0.00    -0.061 C 
ATOM     34  H   UNL     1      -7.598  -2.107   1.678  0.00  0.00    +0.023 HD
ATOM     35  H   UNL     1      -6.048  -2.897   2.100  0.00  0.00    +0.023 HD
ATOM     36  H   UNL     1      -6.352  -1.167   2.564  0.00  0.00    +0.023 HD
ENDBRANCH  27  33
ENDBRANCH  15  27
ENDBRANCH  11  15
ENDBRANCH   8  12
ENDBRANCH   3   8
ENDBRANCH   1   5
BRANCH   1  37
ATOM     37  N   UNL     1       0.151   2.093  -1.289  0.00  0.00    -0.308 N 
ATOM     38  C   UNL     1       1.122   1.068  -1.030  0.00  0.00    +0.234 C 
ATOM     39  O   UNL     1       0.743  -0.072  -0.643  0.00  0.00    -0.274 OA
ATOM     40  H   UNL     1       0.483   2.997  -1.697  0.00  0.00    +0.149 HD
BRANCH  38  41
ATOM     41  C   UNL     1       2.590   1.349  -1.260  0.00  0.00    +0.108 C 
ATOM     42  H   UNL     1       2.673   1.728  -2.304  0.00  0.00    +0.060 HD
BRANCH  41  43
ATOM     43  N   UNL     1       3.403   0.127  -1.157  0.00  0.00    -0.298 N 
ATOM     44  C   UNL     1       3.604  -0.619   0.060  0.00  0.00    +0.263 C 
ATOM     45  O   UNL     1       2.963  -0.312   1.102  0.00  0.00    -0.269 OA
ATOM     46  H   UNL     1       3.885  -0.193  -2.027  0.00  0.00    +0.150 HD
BRANCH  44  47
ATOM     47  C   UNL     1       4.560  -1.748   0.097  0.00  0.00    +0.126 A 
ATOM     48  C   UNL     1       4.750  -2.497   1.270  0.00  0.00    -0.031 A 
ATOM     49  C   UNL     1       5.662  -3.554   1.278  0.00  0.00    -0.050 A 
ATOM     50  C   UNL     1       6.383  -3.861   0.119  0.00  0.00    +0.000 A 
ATOM     51  C   UNL     1       7.308  -4.916   0.091  0.00  0.00    -0.053 A 
ATOM     52  C   UNL     1       8.013  -5.196  -1.084  0.00  0.00    -0.061 A 
ATOM     53  C   UNL     1       7.799  -4.428  -2.233  0.00  0.00    -0.060 A 
ATOM     54  C   UNL     1       6.879  -3.375  -2.214  0.00  0.00    -0.036 A 
ATOM     55  C   UNL     1       6.169  -3.087  -1.043  0.00  0.00    +0.072 A 
ATOM     56  N   UNL     1       5.274  -2.064  -1.020  0.00  0.00    -0.242 NA
ATOM     57  H   UNL     1       4.199  -2.269   2.174  0.00  0.00    +0.064 HD
ATOM     58  H   UNL     1       5.804  -4.129   2.186  0.00  0.00    +0.062 HD
ATOM     59  H   UNL     1       7.484  -5.520   0.974  0.00  0.00    +0.062 HD
ATOM     60  H   UNL     1       8.726  -6.010  -1.104  0.00  0.00    +0.062 HD
ATOM     61  H   UNL     1       8.347  -4.649  -3.140  0.00  0.00    +0.062 HD
ATOM     62  H   UNL     1       6.720  -2.785  -3.108  0.00  0.00    +0.064 HD
ENDBRANCH  44  47
ENDBRANCH  41  43
BRANCH  41  63
ATOM     63  C   UNL     1       3.113   2.459  -0.325  0.00  0.00    +0.051 C 
ATOM     64  H   UNL     1       3.024   2.159   0.739  0.00  0.00    +0.038 HD
ATOM     65  H   UNL     1       2.500   3.377  -0.451  0.00  0.00    +0.038 HD
BRANCH  63  66
ATOM     66  C   UNL     1       4.541   2.802  -0.635  0.00  0.00    +0.213 C 
ATOM     67  N   UNL     1       5.606   2.232   0.125  0.00  0.00    -0.329 N 
ATOM     68  O   UNL     1       4.803   3.572  -1.597  0.00  0.00    -0.276 OA
ATOM     69  H   UNL     1       6.599   2.457  -0.109  0.00  0.00    +0.145 HD
ATOM     70  H   UNL     1       5.410   1.587   0.922  0.00  0.00    +0.145 HD
ENDBRANCH  63  66
ENDBRANCH  41  63
ENDBRANCH  38  41
ENDBRANCH   1  37
BRANCH   1  71
ATOM     71  C   UNL     1      -1.625   1.867   0.427  0.00  0.00    -0.007 C 
ATOM     72  H   UNL     1      -1.198   0.949   0.884  0.00  0.00    +0.033 HD
ATOM     73  H   UNL     1      -2.724   1.793   0.564  0.00  0.00    +0.033 HD
BRANCH  71  74
ATOM     74  C   UNL     1      -1.109   3.076   1.170  0.00  0.00    -0.046 A 
ATOM     75  C   UNL     1      -1.890   4.240   1.266  0.00  0.00    -0.059 A 
ATOM     76  C   UNL     1      -1.396   5.367   1.931  0.00  0.00    -0.062 A 
ATOM     77  C   UNL     1      -0.122   5.339   2.506  0.00  0.00    -0.062 A 
ATOM     78  C   UNL     1       0.657   4.182   2.423  0.00  0.00    -0.062 A 
ATOM     79  C   UNL     1       0.165   3.053   1.761  0.00  0.00    -0.059 A 
ATOM     80  H   UNL     1      -2.878   4.277   0.824  0.00  0.00    +0.062 HD
ATOM     81  H   UNL     1      -2.000   6.263   1.999  0.00  0.00    +0.062 HD
ATOM     82  H   UNL     1       0.259   6.212   3.019  0.00  0.00    +0.062 HD
ATOM     83  H   UNL     1       1.641   4.158   2.872  0.00  0.00    +0.062 HD
ATOM     84  H   UNL     1       0.774   2.160   1.712  0.00  0.00    +0.062 HD
ENDBRANCH  71  74
ENDBRANCH   1  71
TORSDOF 18
