REMARK  Name = 
REMARK  11 active torsions:
REMARK  status: ('A' for Active; 'I' for Inactive)
REMARK    1  A    between atoms: O_1  and  C_2
REMARK    2  A    between atoms: C_3  and  O_4
REMARK    3  A    between atoms: C_5  and  C_6
REMARK    4  A    between atoms: C_6  and  C_7
REMARK    5  A    between atoms: N_13  and  C_14
REMARK    6  A    between atoms: C_14  and  C_15
REMARK    7  A    between atoms: N_22  and  C_23
REMARK    8  A    between atoms: N_25  and  C_26
REMARK    9  A    between atoms: C_26  and  C_27
REMARK   10  A    between atoms: C_33  and  C_34
REMARK   11  A    between atoms: C_34  and  C_35
REMARK                            x       y       z     vdW  Elec       q    Type
REMARK                         _______ _______ _______ _____ _____    ______ ____
ROOT
ATOM      1  C   UNL     1      -0.973  -1.831  -0.762  0.00  0.00    +0.102 C 
ATOM      2  C   UNL     1       0.540  -1.649  -0.452  0.00  0.00    +0.102 C 
ATOM      3  C   UNL     1       0.863  -0.417   0.460  0.00  0.00    +0.058 C 
ATOM      4  N   UNL     1       1.056   0.832  -0.342  0.00  0.00    -0.296 N 
ATOM      5  C   UNL     1      -0.059   1.203  -1.206  0.00  0.00    +0.197 C 
ATOM      6  N   UNL     1       0.059   1.970  -2.256  0.00  0.00    -0.142 NA
ATOM      7  N   UNL     1      -1.356   0.639  -0.961  0.00  0.00    -0.296 N 
ATOM      8  C   UNL     1      -1.625  -0.683  -1.581  0.00  0.00    +0.058 C 
ATOM      9  H   UNL     1      -1.051  -2.758  -1.378  0.00  0.00    +0.064 HD
ATOM     10  H   UNL     1       0.802  -2.572   0.102  0.00  0.00    +0.064 HD
ATOM     11  H   UNL     1      -0.017  -0.243   1.112  0.00  0.00    +0.053 HD
ATOM     12  H   UNL     1      -1.157  -0.685  -2.591  0.00  0.00    +0.053 HD
ENDROOT
BRANCH   4  13
ATOM     13  C   UNL     1       1.956   1.915   0.130  0.00  0.00    +0.018 C 
ATOM     14  H   UNL     1       1.759   2.112   1.205  0.00  0.00    +0.047 HD
ATOM     15  H   UNL     1       1.681   2.882  -0.335  0.00  0.00    +0.047 HD
BRANCH  13  16
ATOM     16  C   UNL     1       3.480   1.647  -0.070  0.00  0.00    -0.025 C 
ATOM     17  C   UNL     1       3.828   0.773  -1.298  0.00  0.00    -0.049 C 
ATOM     18  C   UNL     1       5.341   0.546  -1.403  0.00  0.00    -0.053 C 
ATOM     19  C   UNL     1       6.094   1.880  -1.466  0.00  0.00    -0.053 C 
ATOM     20  C   UNL     1       5.761   2.754  -0.253  0.00  0.00    -0.053 C 
ATOM     21  C   UNL     1       4.249   2.984  -0.138  0.00  0.00    -0.049 C 
ATOM     22  H   UNL     1       3.860   1.120   0.830  0.00  0.00    +0.032 HD
ATOM     23  H   UNL     1       3.476   1.242  -2.233  0.00  0.00    +0.027 HD
ATOM     24  H   UNL     1       3.343  -0.217  -1.219  0.00  0.00    +0.027 HD
ATOM     25  H   UNL     1       5.561  -0.042  -2.319  0.00  0.00    +0.027 HD
ATOM     26  H   UNL     1       5.693  -0.042  -0.527  0.00  0.00    +0.027 HD
ATOM     27  H   UNL     1       7.187   1.683  -1.488  0.00  0.00    +0.027 HD
ATOM     28  H   UNL     1       5.823   2.418  -2.401  0.00  0.00    +0.027 HD
ATOM     29  H   UNL     1       6.275   3.734  -0.355  0.00  0.00    +0.027 HD
ATOM     30  H   UNL     1       6.137   2.267   0.674  0.00  0.00    +0.027 HD
ATOM     31  H   UNL     1       3.904   3.579  -1.012  0.00  0.00    +0.027 HD
ATOM     32  H   UNL     1       4.047   3.577   0.781  0.00  0.00    +0.027 HD
ENDBRANCH  13  16
ENDBRANCH   4  13
BRANCH   3  33
ATOM     33  C   UNL     1       2.020  -0.746   1.450  0.00  0.00    -0.006 C 
ATOM     34  H   UNL     1       2.263   0.135   2.074  0.00  0.00    +0.033 HD
ATOM     35  H   UNL     1       2.931  -1.035   0.886  0.00  0.00    +0.033 HD
BRANCH  33  36
ATOM     36  C   UNL     1       1.656  -1.842   2.428  0.00  0.00    -0.046 A 
ATOM     37  C   UNL     1       2.245  -3.115   2.328  0.00  0.00    -0.059 A 
ATOM     38  C   UNL     1       1.892  -4.127   3.225  0.00  0.00    -0.062 A 
ATOM     39  C   UNL     1       0.955  -3.877   4.232  0.00  0.00    -0.062 A 
ATOM     40  C   UNL     1       0.372  -2.612   4.344  0.00  0.00    -0.062 A 
ATOM     41  C   UNL     1       0.722  -1.597   3.449  0.00  0.00    -0.059 A 
ATOM     42  H   UNL     1       2.968  -3.327   1.550  0.00  0.00    +0.062 HD
ATOM     43  H   UNL     1       2.344  -5.107   3.140  0.00  0.00    +0.062 HD
ATOM     44  H   UNL     1       0.683  -4.662   4.925  0.00  0.00    +0.062 HD
ATOM     45  H   UNL     1      -0.350  -2.418   5.126  0.00  0.00    +0.062 HD
ATOM     46  H   UNL     1       0.268  -0.620   3.553  0.00  0.00    +0.062 HD
ENDBRANCH  33  36
ENDBRANCH   3  33
BRANCH   7  47
ATOM     47  C   UNL     1      -2.397   1.549  -0.439  0.00  0.00    +0.018 C 
ATOM     48  H   UNL     1      -2.052   2.604  -0.502  0.00  0.00    +0.047 HD
ATOM     49  H   UNL     1      -3.294   1.526  -1.088  0.00  0.00    +0.047 HD
BRANCH  47  50
ATOM     50  C   UNL     1      -2.769   1.221   1.027  0.00  0.00    -0.025 C 
ATOM     51  C   UNL     1      -4.189   1.722   1.363  0.00  0.00    -0.049 C 
ATOM     52  C   UNL     1      -4.283   3.259   1.389  0.00  0.00    -0.053 C 
ATOM     53  C   UNL     1      -3.033   3.944   1.979  0.00  0.00    -0.053 C 
ATOM     54  C   UNL     1      -2.204   2.992   2.844  0.00  0.00    -0.053 C 
ATOM     55  C   UNL     1      -1.719   1.775   2.035  0.00  0.00    -0.049 C 
ATOM     56  H   UNL     1      -2.795   0.118   1.134  0.00  0.00    +0.032 HD
ATOM     57  H   UNL     1      -4.926   1.315   0.636  0.00  0.00    +0.027 HD
ATOM     58  H   UNL     1      -4.478   1.326   2.362  0.00  0.00    +0.027 HD
ATOM     59  H   UNL     1      -5.176   3.546   1.985  0.00  0.00    +0.027 HD
ATOM     60  H   UNL     1      -4.446   3.635   0.355  0.00  0.00    +0.027 HD
ATOM     61  H   UNL     1      -2.393   4.330   1.155  0.00  0.00    +0.027 HD
ATOM     62  H   UNL     1      -3.343   4.819   2.590  0.00  0.00    +0.027 HD
ATOM     63  H   UNL     1      -1.325   3.534   3.257  0.00  0.00    +0.027 HD
ATOM     64  H   UNL     1      -2.820   2.649   3.704  0.00  0.00    +0.027 HD
ATOM     65  H   UNL     1      -1.450   0.974   2.756  0.00  0.00    +0.027 HD
ATOM     66  H   UNL     1      -0.782   2.055   1.510  0.00  0.00    +0.027 HD
ENDBRANCH  47  50
ENDBRANCH   7  47
BRANCH   8  67
ATOM     67  C   UNL     1      -3.135  -0.945  -1.841  0.00  0.00    -0.006 C 
ATOM     68  H   UNL     1      -3.537  -0.146  -2.501  0.00  0.00    +0.033 HD
ATOM     69  H   UNL     1      -3.704  -0.906  -0.887  0.00  0.00    +0.033 HD
BRANCH  67  70
ATOM     70  C   UNL     1      -3.385  -2.261  -2.537  0.00  0.00    -0.046 A 
ATOM     71  C   UNL     1      -3.866  -3.368  -1.817  0.00  0.00    -0.059 A 
ATOM     72  C   UNL     1      -4.070  -4.592  -2.461  0.00  0.00    -0.062 A 
ATOM     73  C   UNL     1      -3.793  -4.721  -3.825  0.00  0.00    -0.062 A 
ATOM     74  C   UNL     1      -3.311  -3.626  -4.547  0.00  0.00    -0.062 A 
ATOM     75  C   UNL     1      -3.106  -2.400  -3.907  0.00  0.00    -0.059 A 
ATOM     76  H   UNL     1      -4.078  -3.286  -0.758  0.00  0.00    +0.062 HD
ATOM     77  H   UNL     1      -4.440  -5.442  -1.903  0.00  0.00    +0.062 HD
ATOM     78  H   UNL     1      -3.951  -5.670  -4.322  0.00  0.00    +0.062 HD
ATOM     79  H   UNL     1      -3.095  -3.728  -5.603  0.00  0.00    +0.062 HD
ATOM     80  H   UNL     1      -2.727  -1.561  -4.477  0.00  0.00    +0.062 HD
ENDBRANCH  67  70
ENDBRANCH   8  67
BRANCH   6  81
ATOM     81  C   UNL     1       1.207   2.588  -2.770  0.00  0.00    +0.208 C 
ATOM     82  N   UNL     1       2.139   3.117  -3.208  0.00  0.00    -0.169 NA
ENDBRANCH   6  81
BRANCH   2  83
ATOM     83  O   UNL     1       1.334  -1.691  -1.613  0.00  0.00    -0.387 OA
ATOM     84  H   UNL     1       1.060  -0.956  -2.215  0.00  0.00    +0.210 HD
ENDBRANCH   2  83
BRANCH   1  85
ATOM     85  O   UNL     1      -1.684  -2.024   0.435  0.00  0.00    -0.387 OA
ATOM     86  H   UNL     1      -1.492  -2.947   0.746  0.00  0.00    +0.210 HD
ENDBRANCH   1  85
TORSDOF 11
