REMARK  Name = 
REMARK  11 active torsions:
REMARK  status: ('A' for Active; 'I' for Inactive)
REMARK    1  A    between atoms: O_1  and  C_2
REMARK    2  A    between atoms: C_3  and  O_4
REMARK    3  A    between atoms: C_5  and  C_6
REMARK    4  A    between atoms: C_6  and  C_7
REMARK    5  A    between atoms: N_13  and  C_14
REMARK    6  A    between atoms: C_14  and  C_15
REMARK    7  A    between atoms: N_22  and  C_23
REMARK    8  A    between atoms: N_25  and  C_26
REMARK    9  A    between atoms: C_26  and  C_27
REMARK   10  A    between atoms: C_33  and  C_34
REMARK   11  A    between atoms: C_34  and  C_35
REMARK                            x       y       z     vdW  Elec       q    Type
REMARK                         _______ _______ _______ _____ _____    ______ ____
ROOT
ATOM      1  C   UNL     1      -0.157  -1.867   0.891  0.00  0.00    +0.102 C 
ATOM      2  C   UNL     1       1.395  -1.792   0.826  0.00  0.00    +0.102 C 
ATOM      3  C   UNL     1       2.039  -0.545   1.493  0.00  0.00    +0.058 C 
ATOM      4  N   UNL     1       1.480   0.721   0.942  0.00  0.00    -0.296 N 
ATOM      5  C   UNL     1       0.211   1.103   1.520  0.00  0.00    +0.197 C 
ATOM      6  N   UNL     1       0.178   1.841   2.596  0.00  0.00    -0.142 NA
ATOM      7  N   UNL     1      -1.017   0.489   1.049  0.00  0.00    -0.296 N 
ATOM      8  C   UNL     1      -0.905  -0.704   0.166  0.00  0.00    +0.058 C 
ATOM      9  H   UNL     1      -0.396  -2.810   0.358  0.00  0.00    +0.064 HD
ATOM     10  H   UNL     1       1.757  -2.686   1.386  0.00  0.00    +0.064 HD
ATOM     11  H   UNL     1       1.785  -0.585   2.576  0.00  0.00    +0.053 HD
ATOM     12  H   UNL     1      -0.312  -0.395  -0.714  0.00  0.00    +0.053 HD
ENDROOT
BRANCH   4  13
ATOM     13  C   UNL     1       2.291   1.790   0.290  0.00  0.00    +0.018 C 
ATOM     14  H   UNL     1       3.376   1.609   0.374  0.00  0.00    +0.047 HD
ATOM     15  H   UNL     1       2.138   2.755   0.817  0.00  0.00    +0.047 HD
BRANCH  13  16
ATOM     16  C   UNL     1       1.994   2.034  -1.208  0.00  0.00    -0.025 C 
ATOM     17  C   UNL     1       0.603   2.653  -1.468  0.00  0.00    -0.049 C 
ATOM     18  C   UNL     1       0.126   2.492  -2.926  0.00  0.00    -0.053 C 
ATOM     19  C   UNL     1       1.297   2.391  -3.910  0.00  0.00    -0.053 C 
ATOM     20  C   UNL     1       2.213   1.188  -3.597  0.00  0.00    -0.053 C 
ATOM     21  C   UNL     1       2.244   0.809  -2.101  0.00  0.00    -0.049 C 
ATOM     22  H   UNL     1       2.739   2.800  -1.526  0.00  0.00    +0.032 HD
ATOM     23  H   UNL     1      -0.151   2.188  -0.814  0.00  0.00    +0.027 HD
ATOM     24  H   UNL     1       0.637   3.734  -1.209  0.00  0.00    +0.027 HD
ATOM     25  H   UNL     1      -0.492   1.573  -3.013  0.00  0.00    +0.027 HD
ATOM     26  H   UNL     1      -0.520   3.353  -3.202  0.00  0.00    +0.027 HD
ATOM     27  H   UNL     1       0.905   2.299  -4.946  0.00  0.00    +0.027 HD
ATOM     28  H   UNL     1       1.889   3.331  -3.860  0.00  0.00    +0.027 HD
ATOM     29  H   UNL     1       1.872   0.305  -4.181  0.00  0.00    +0.027 HD
ATOM     30  H   UNL     1       3.243   1.429  -3.937  0.00  0.00    +0.027 HD
ATOM     31  H   UNL     1       1.455   0.059  -1.926  0.00  0.00    +0.027 HD
ATOM     32  H   UNL     1       3.225   0.345  -1.859  0.00  0.00    +0.027 HD
ENDBRANCH  13  16
ENDBRANCH   4  13
BRANCH   3  33
ATOM     33  C   UNL     1       3.591  -0.620   1.458  0.00  0.00    -0.006 C 
ATOM     34  H   UNL     1       3.952  -0.598   0.407  0.00  0.00    +0.033 HD
ATOM     35  H   UNL     1       4.012   0.264   1.984  0.00  0.00    +0.033 HD
BRANCH  33  36
ATOM     36  C   UNL     1       4.131  -1.844   2.158  0.00  0.00    -0.046 A 
ATOM     37  C   UNL     1       4.595  -2.944   1.416  0.00  0.00    -0.059 A 
ATOM     38  C   UNL     1       5.071  -4.085   2.070  0.00  0.00    -0.062 A 
ATOM     39  C   UNL     1       5.085  -4.137   3.466  0.00  0.00    -0.062 A 
ATOM     40  C   UNL     1       4.623  -3.049   4.212  0.00  0.00    -0.062 A 
ATOM     41  C   UNL     1       4.146  -1.907   3.562  0.00  0.00    -0.059 A 
ATOM     42  H   UNL     1       4.582  -2.921   0.333  0.00  0.00    +0.062 HD
ATOM     43  H   UNL     1       5.426  -4.929   1.494  0.00  0.00    +0.062 HD
ATOM     44  H   UNL     1       5.453  -5.021   3.971  0.00  0.00    +0.062 HD
ATOM     45  H   UNL     1       4.632  -3.092   5.293  0.00  0.00    +0.062 HD
ATOM     46  H   UNL     1       3.786  -1.072   4.151  0.00  0.00    +0.062 HD
ENDBRANCH  33  36
ENDBRANCH   3  33
BRANCH   7  47
ATOM     47  C   UNL     1      -2.301   0.947   1.635  0.00  0.00    +0.018 C 
ATOM     48  H   UNL     1      -3.141   0.275   1.397  0.00  0.00    +0.047 HD
ATOM     49  H   UNL     1      -2.219   0.891   2.743  0.00  0.00    +0.047 HD
BRANCH  47  50
ATOM     50  C   UNL     1      -2.657   2.404   1.228  0.00  0.00    -0.025 C 
ATOM     51  C   UNL     1      -3.861   2.920   2.043  0.00  0.00    -0.049 C 
ATOM     52  C   UNL     1      -5.181   2.213   1.673  0.00  0.00    -0.053 C 
ATOM     53  C   UNL     1      -5.282   1.831   0.182  0.00  0.00    -0.053 C 
ATOM     54  C   UNL     1      -4.383   2.701  -0.698  0.00  0.00    -0.053 C 
ATOM     55  C   UNL     1      -2.899   2.587  -0.297  0.00  0.00    -0.049 C 
ATOM     56  H   UNL     1      -1.797   3.051   1.502  0.00  0.00    +0.032 HD
ATOM     57  H   UNL     1      -3.669   2.804   3.133  0.00  0.00    +0.027 HD
ATOM     58  H   UNL     1      -3.974   4.011   1.854  0.00  0.00    +0.027 HD
ATOM     59  H   UNL     1      -6.026   2.885   1.939  0.00  0.00    +0.027 HD
ATOM     60  H   UNL     1      -5.291   1.293   2.288  0.00  0.00    +0.027 HD
ATOM     61  H   UNL     1      -5.001   0.765   0.044  0.00  0.00    +0.027 HD
ATOM     62  H   UNL     1      -6.336   1.935  -0.154  0.00  0.00    +0.027 HD
ATOM     63  H   UNL     1      -4.711   3.760  -0.611  0.00  0.00    +0.027 HD
ATOM     64  H   UNL     1      -4.503   2.401  -1.762  0.00  0.00    +0.027 HD
ATOM     65  H   UNL     1      -2.391   3.518  -0.631  0.00  0.00    +0.027 HD
ATOM     66  H   UNL     1      -2.428   1.771  -0.876  0.00  0.00    +0.027 HD
ENDBRANCH  47  50
ENDBRANCH   7  47
BRANCH   8  67
ATOM     67  C   UNL     1      -2.261  -1.212  -0.409  0.00  0.00    -0.006 C 
ATOM     68  H   UNL     1      -2.877  -0.368  -0.770  0.00  0.00    +0.033 HD
ATOM     69  H   UNL     1      -2.841  -1.724   0.390  0.00  0.00    +0.033 HD
BRANCH  67  70
ATOM     70  C   UNL     1      -2.072  -2.143  -1.585  0.00  0.00    -0.046 A 
ATOM     71  C   UNL     1      -2.307  -3.523  -1.451  0.00  0.00    -0.059 A 
ATOM     72  C   UNL     1      -2.110  -4.380  -2.538  0.00  0.00    -0.062 A 
ATOM     73  C   UNL     1      -1.682  -3.868  -3.766  0.00  0.00    -0.062 A 
ATOM     74  C   UNL     1      -1.453  -2.497  -3.909  0.00  0.00    -0.062 A 
ATOM     75  C   UNL     1      -1.650  -1.637  -2.825  0.00  0.00    -0.059 A 
ATOM     76  H   UNL     1      -2.633  -3.936  -0.505  0.00  0.00    +0.062 HD
ATOM     77  H   UNL     1      -2.287  -5.442  -2.429  0.00  0.00    +0.062 HD
ATOM     78  H   UNL     1      -1.529  -4.533  -4.606  0.00  0.00    +0.062 HD
ATOM     79  H   UNL     1      -1.123  -2.100  -4.861  0.00  0.00    +0.062 HD
ATOM     80  H   UNL     1      -1.473  -0.578  -2.951  0.00  0.00    +0.062 HD
ENDBRANCH  67  70
ENDBRANCH   8  67
BRANCH   6  81
ATOM     81  C   UNL     1       1.312   2.347   3.252  0.00  0.00    +0.208 C 
ATOM     82  N   UNL     1       2.247   2.762   3.794  0.00  0.00    -0.169 NA
ENDBRANCH   6  81
BRANCH   2  83
ATOM     83  O   UNL     1       1.827  -1.895  -0.506  0.00  0.00    -0.387 OA
ATOM     84  H   UNL     1       1.721  -2.845  -0.778  0.00  0.00    +0.210 HD
ENDBRANCH   2  83
BRANCH   1  85
ATOM     85  O   UNL     1      -0.627  -2.060   2.204  0.00  0.00    -0.387 OA
ATOM     86  H   UNL     1      -0.356  -1.283   2.753  0.00  0.00    +0.210 HD
ENDBRANCH   1  85
TORSDOF 11
