REMARK  Name = 
REMARK  18 active torsions:
REMARK  status: ('A' for Active; 'I' for Inactive)
REMARK    1  A    between atoms: C_1  and  C_2
REMARK    2  A    between atoms: C_2  and  C_3
REMARK    3  A    between atoms: C_2  and  C_4
REMARK    4  A    between atoms: C_4  and  N_5
REMARK    5  A    between atoms: C_4  and  C_41
REMARK    6  A    between atoms: C_6  and  C_8
REMARK    7  A    between atoms: C_8  and  C_9
REMARK    8  A    between atoms: C_11  and  C_12
REMARK    9  A    between atoms: C_12  and  C_13
REMARK   10  A    between atoms: C_12  and  N_20
REMARK   11  A    between atoms: C_13  and  C_14
REMARK   12  A    between atoms: C_21  and  C_23
REMARK   13  A    between atoms: C_23  and  C_24
REMARK   14  A    between atoms: C_23  and  N_28
REMARK   15  A    between atoms: C_24  and  C_25
REMARK   16  A    between atoms: C_29  and  C_31
REMARK   17  A    between atoms: C_41  and  C_42
REMARK   18  A    between atoms: C_41  and  C_43
REMARK                            x       y       z     vdW  Elec       q    Type
REMARK                         _______ _______ _______ _____ _____    ______ ____
ROOT
ATOM      1  C   UNL     1       0.607  -0.936  -1.547  0.00  0.00    +0.056 C 
ATOM      2  H   UNL     1      -0.004  -0.373  -2.284  0.00  0.00    +0.053 HD
ENDROOT
BRANCH   1   5
ATOM      3  C   UNL     1      -0.467   0.693   0.233  0.00  0.00    +0.095 C 
ATOM      4  O   UNL     1       0.732   1.173  -0.334  0.00  0.00    -0.366 OA
ATOM      5  C   UNL     1       0.630  -0.226  -0.182  0.00  0.00    +0.104 C 
ATOM      6  H   UNL     1      -0.533   0.927   1.316  0.00  0.00    +0.063 HD
ATOM      7  H   UNL     1       1.308  -0.596   0.615  0.00  0.00    +0.064 HD
BRANCH   3   8
ATOM      8  C   UNL     1      -1.666   0.921  -0.697  0.00  0.00    +0.053 C 
ATOM      9  H   UNL     1      -1.351   1.392  -1.654  0.00  0.00    +0.038 HD
ATOM     10  H   UNL     1      -2.148  -0.052  -0.930  0.00  0.00    +0.038 HD
BRANCH   8  12
ATOM     11  N   UNL     1      -3.641   1.251   0.867  0.00  0.00    -0.312 N 
ATOM     12  C   UNL     1      -2.664   1.811  -0.024  0.00  0.00    +0.216 C 
ATOM     13  O   UNL     1      -2.606   3.057  -0.213  0.00  0.00    -0.276 OA
ATOM     14  H   UNL     1      -3.634   0.216   1.006  0.00  0.00    +0.149 HD
BRANCH  11  15
ATOM     15  C   UNL     1      -4.529   2.073   1.702  0.00  0.00    +0.028 C 
ATOM     16  H   UNL     1      -4.584   3.085   1.240  0.00  0.00    +0.050 HD
BRANCH  15  17
ATOM     17  C   UNL     1      -5.993   1.536   1.627  0.00  0.00    -0.028 C 
ATOM     18  H   UNL     1      -6.205   1.319   0.555  0.00  0.00    +0.031 HD
BRANCH  17  19
ATOM     19  C   UNL     1      -7.017   2.598   2.060  0.00  0.00    -0.061 C 
ATOM     20  H   UNL     1      -8.049   2.229   1.875  0.00  0.00    +0.023 HD
ATOM     21  H   UNL     1      -6.883   3.531   1.472  0.00  0.00    +0.023 HD
ATOM     22  H   UNL     1      -6.922   2.838   3.139  0.00  0.00    +0.023 HD
ENDBRANCH  17  19
BRANCH  17  23
ATOM     23  C   UNL     1      -6.233   0.230   2.399  0.00  0.00    -0.061 C 
ATOM     24  H   UNL     1      -7.260  -0.143   2.196  0.00  0.00    +0.023 HD
ATOM     25  H   UNL     1      -5.526  -0.560   2.075  0.00  0.00    +0.023 HD
ATOM     26  H   UNL     1      -6.140   0.390   3.494  0.00  0.00    +0.023 HD
ENDBRANCH  17  23
ENDBRANCH  15  17
BRANCH  15  27
ATOM     27  C   UNL     1      -3.954   2.245   3.150  0.00  0.00    -0.028 C 
ATOM     28  H   UNL     1      -4.790   2.438   3.855  0.00  0.00    +0.031 HD
BRANCH  27  29
ATOM     29  C   UNL     1      -3.032   3.471   3.228  0.00  0.00    -0.061 C 
ATOM     30  H   UNL     1      -2.159   3.350   2.552  0.00  0.00    +0.023 HD
ATOM     31  H   UNL     1      -2.662   3.611   4.266  0.00  0.00    +0.023 HD
ATOM     32  H   UNL     1      -3.587   4.390   2.940  0.00  0.00    +0.023 HD
ENDBRANCH  27  29
BRANCH  27  33
ATOM     33  C   UNL     1      -3.192   1.012   3.674  0.00  0.00    -0.061 C 
ATOM     34  H   UNL     1      -3.806   0.094   3.612  0.00  0.00    +0.023 HD
ATOM     35  H   UNL     1      -2.256   0.850   3.100  0.00  0.00    +0.023 HD
ATOM     36  H   UNL     1      -2.921   1.161   4.741  0.00  0.00    +0.023 HD
ENDBRANCH  27  33
ENDBRANCH  15  27
ENDBRANCH  11  15
ENDBRANCH   8  12
ENDBRANCH   3   8
ENDBRANCH   1   5
BRANCH   1  37
ATOM     37  N   UNL     1       1.983  -1.046  -2.036  0.00  0.00    -0.308 N 
ATOM     38  C   UNL     1       2.556  -0.079  -2.929  0.00  0.00    +0.234 C 
ATOM     39  O   UNL     1       1.817   0.599  -3.693  0.00  0.00    -0.274 OA
ATOM     40  H   UNL     1       2.629  -1.691  -1.527  0.00  0.00    +0.149 HD
BRANCH  38  41
ATOM     41  C   UNL     1       4.046   0.142  -2.950  0.00  0.00    +0.108 C 
ATOM     42  H   UNL     1       4.280   1.067  -3.525  0.00  0.00    +0.060 HD
BRANCH  41  43
ATOM     43  N   UNL     1       4.521   0.315  -1.574  0.00  0.00    -0.298 N 
ATOM     44  C   UNL     1       4.129   1.454  -0.795  0.00  0.00    +0.263 C 
ATOM     45  O   UNL     1       3.911   2.557  -1.368  0.00  0.00    -0.269 OA
ATOM     46  H   UNL     1       4.981  -0.490  -1.091  0.00  0.00    +0.150 HD
BRANCH  44  47
ATOM     47  C   UNL     1       3.925   1.327   0.663  0.00  0.00    +0.126 A 
ATOM     48  C   UNL     1       3.543   2.433   1.441  0.00  0.00    -0.031 A 
ATOM     49  C   UNL     1       3.294   2.268   2.805  0.00  0.00    -0.050 A 
ATOM     50  C   UNL     1       3.425   1.003   3.389  0.00  0.00    +0.000 A 
ATOM     51  C   UNL     1       3.174   0.799   4.754  0.00  0.00    -0.053 A 
ATOM     52  C   UNL     1       3.308  -0.479   5.305  0.00  0.00    -0.061 A 
ATOM     53  C   UNL     1       3.693  -1.557   4.499  0.00  0.00    -0.060 A 
ATOM     54  C   UNL     1       3.945  -1.361   3.138  0.00  0.00    -0.036 A 
ATOM     55  C   UNL     1       3.814  -0.086   2.578  0.00  0.00    +0.072 A 
ATOM     56  N   UNL     1       4.049   0.106   1.253  0.00  0.00    -0.242 NA
ATOM     57  H   UNL     1       3.426   3.414   0.997  0.00  0.00    +0.064 HD
ATOM     58  H   UNL     1       2.995   3.123   3.399  0.00  0.00    +0.062 HD
ATOM     59  H   UNL     1       2.874   1.623   5.390  0.00  0.00    +0.062 HD
ATOM     60  H   UNL     1       3.114  -0.636   6.358  0.00  0.00    +0.062 HD
ATOM     61  H   UNL     1       3.794  -2.544   4.931  0.00  0.00    +0.062 HD
ATOM     62  H   UNL     1       4.239  -2.201   2.521  0.00  0.00    +0.064 HD
ENDBRANCH  44  47
ENDBRANCH  41  43
BRANCH  41  63
ATOM     63  C   UNL     1       4.772  -1.037  -3.625  0.00  0.00    +0.051 C 
ATOM     64  H   UNL     1       4.516  -1.993  -3.118  0.00  0.00    +0.038 HD
ATOM     65  H   UNL     1       5.870  -0.894  -3.524  0.00  0.00    +0.038 HD
BRANCH  63  66
ATOM     66  C   UNL     1       4.432  -1.131  -5.085  0.00  0.00    +0.213 C 
ATOM     67  N   UNL     1       3.340  -1.939  -5.523  0.00  0.00    -0.329 N 
ATOM     68  O   UNL     1       5.090  -0.462  -5.925  0.00  0.00    -0.276 OA
ATOM     69  H   UNL     1       2.769  -2.478  -4.836  0.00  0.00    +0.145 HD
ATOM     70  H   UNL     1       3.095  -1.991  -6.537  0.00  0.00    +0.145 HD
ENDBRANCH  63  66
ENDBRANCH  41  63
ENDBRANCH  38  41
ENDBRANCH   1  37
BRANCH   1  71
ATOM     71  C   UNL     1      -0.008  -2.335  -1.386  0.00  0.00    -0.007 C 
ATOM     72  H   UNL     1      -1.029  -2.248  -0.957  0.00  0.00    +0.033 HD
ATOM     73  H   UNL     1       0.594  -2.933  -0.665  0.00  0.00    +0.033 HD
BRANCH  71  74
ATOM     74  C   UNL     1      -0.093  -3.049  -2.711  0.00  0.00    -0.046 A 
ATOM     75  C   UNL     1      -1.129  -2.745  -3.611  0.00  0.00    -0.059 A 
ATOM     76  C   UNL     1      -1.189  -3.380  -4.855  0.00  0.00    -0.062 A 
ATOM     77  C   UNL     1      -0.215  -4.318  -5.211  0.00  0.00    -0.062 A 
ATOM     78  C   UNL     1       0.822  -4.620  -4.324  0.00  0.00    -0.062 A 
ATOM     79  C   UNL     1       0.887  -3.985  -3.080  0.00  0.00    -0.059 A 
ATOM     80  H   UNL     1      -1.884  -2.015  -3.349  0.00  0.00    +0.062 HD
ATOM     81  H   UNL     1      -1.988  -3.143  -5.545  0.00  0.00    +0.062 HD
ATOM     82  H   UNL     1      -0.262  -4.807  -6.175  0.00  0.00    +0.062 HD
ATOM     83  H   UNL     1       1.579  -5.341  -4.604  0.00  0.00    +0.062 HD
ATOM     84  H   UNL     1       1.704  -4.219  -2.408  0.00  0.00    +0.062 HD
ENDBRANCH  71  74
ENDBRANCH   1  71
TORSDOF 18
