REMARK  Name = 
REMARK  16 active torsions:
REMARK  status: ('A' for Active; 'I' for Inactive)
REMARK    1  A    between atoms: C_1  and  C_2
REMARK    2  A    between atoms: C_2  and  C_3
REMARK    3  A    between atoms: C_2  and  C_4
REMARK    4  A    between atoms: C_4  and  C_5
REMARK    5  A    between atoms: C_5  and  C_6
REMARK    6  A    between atoms: C_6  and  C_7
REMARK    7  A    between atoms: C_19  and  S_20
REMARK    8  A    between atoms: S_20  and  C_21
REMARK    9  A    between atoms: C_23  and  C_24
REMARK   10  A    between atoms: C_25  and  C_26
REMARK   11  A    between atoms: C_26  and  O_27
REMARK   12  A    between atoms: C_29  and  C_30
REMARK   13  A    between atoms: C_30  and  C_31
REMARK   14  A    between atoms: C_30  and  C_32
REMARK   15  A    between atoms: C_30  and  C_33
REMARK   16  A    between atoms: C_34  and  O_35
REMARK                            x       y       z     vdW  Elec       q    Type
REMARK                         _______ _______ _______ _____ _____    ______ ____
ROOT
ATOM      1  C   UNL     1       1.649  -0.199   0.126  0.00  0.00    +0.123 C 
ATOM      2  C   UNL     1       1.527  -1.283   1.244  0.00  0.00    +0.051 C 
ATOM      3  C   UNL     1       0.164  -1.343   1.868  0.00  0.00    +0.180 C 
ATOM      4  O   UNL     1      -0.175  -2.382   2.495  0.00  0.00    -0.291 OA
ATOM      5  C   UNL     1      -0.733  -0.175   1.838  0.00  0.00    +0.135 C 
ATOM      6  C   UNL     1      -0.342   0.926   1.188  0.00  0.00    +0.297 C 
ATOM      7  O   UNL     1       0.854   0.950   0.459  0.00  0.00    -0.456 OA
ATOM      8  H   UNL     1       2.238  -1.073   2.073  0.00  0.00    +0.038 HD
ATOM      9  H   UNL     1       1.790  -2.284   0.838  0.00  0.00    +0.038 HD
ENDROOT
BRANCH   1  10
ATOM     10  C   UNL     1       3.125   0.306   0.092  0.00  0.00    -0.006 C 
ATOM     11  H   UNL     1       3.390   0.688   1.104  0.00  0.00    +0.031 HD
ATOM     12  H   UNL     1       3.210   1.188  -0.578  0.00  0.00    +0.031 HD
BRANCH  10  13
ATOM     13  C   UNL     1       4.168  -0.746  -0.325  0.00  0.00    -0.000 C 
ATOM     14  H   UNL     1       4.027  -1.034  -1.387  0.00  0.00    +0.033 HD
ATOM     15  H   UNL     1       4.077  -1.659   0.299  0.00  0.00    +0.033 HD
BRANCH  13  16
ATOM     16  C   UNL     1       5.549  -0.195  -0.170  0.00  0.00    +0.080 A 
ATOM     17  N   UNL     1       6.169   0.533  -1.132  0.00  0.00    -0.244 NA
ATOM     18  C   UNL     1       7.385   0.962  -0.706  0.00  0.00    +0.078 A 
ATOM     19  C   UNL     1       8.263   1.730  -1.472  0.00  0.00    -0.035 A 
ATOM     20  C   UNL     1       9.492   2.114  -0.908  0.00  0.00    -0.060 A 
ATOM     21  C   UNL     1       9.826   1.730   0.406  0.00  0.00    -0.061 A 
ATOM     22  C   UNL     1       8.933   0.960   1.168  0.00  0.00    -0.046 A 
ATOM     23  C   UNL     1       7.723   0.591   0.586  0.00  0.00    +0.039 A 
ATOM     24  S   UNL     1       6.471  -0.309   1.247  0.00  0.00    -0.072 S 
ATOM     25  H   UNL     1       8.005   2.025  -2.481  0.00  0.00    +0.064 HD
ATOM     26  H   UNL     1      10.186   2.709  -1.487  0.00  0.00    +0.062 HD
ATOM     27  H   UNL     1      10.774   2.033   0.831  0.00  0.00    +0.062 HD
ATOM     28  H   UNL     1       9.179   0.662   2.179  0.00  0.00    +0.063 HD
ENDBRANCH  13  16
ENDBRANCH  10  13
ENDBRANCH   1  10
BRANCH   6  29
ATOM     29  O   UNL     1      -1.114   2.079   1.232  0.00  0.00    -0.479 OA
ATOM     30  H   UNL     1      -0.821   2.914   0.740  0.00  0.00    +0.295 HD
ENDBRANCH   6  29
BRANCH   1  31
ATOM     31  C   UNL     1       1.199  -0.757  -1.282  0.00  0.00    -0.006 C 
ATOM     32  H   UNL     1       1.840  -1.626  -1.543  0.00  0.00    +0.033 HD
BRANCH  31  33
ATOM     33  C   UNL     1      -0.246  -1.286  -1.306  0.00  0.00    -0.059 C 
ATOM     34  H   UNL     1      -0.972  -0.483  -1.062  0.00  0.00    +0.023 HD
ATOM     35  H   UNL     1      -0.368  -2.136  -0.607  0.00  0.00    +0.023 HD
ATOM     36  H   UNL     1      -0.496  -1.675  -2.316  0.00  0.00    +0.023 HD
ENDBRANCH  31  33
BRANCH  31  37
ATOM     37  C   UNL     1       1.358   0.285  -2.407  0.00  0.00    -0.059 C 
ATOM     38  H   UNL     1       2.427   0.517  -2.589  0.00  0.00    +0.023 HD
ATOM     39  H   UNL     1       0.816   1.222  -2.157  0.00  0.00    +0.023 HD
ATOM     40  H   UNL     1       0.955  -0.109  -3.364  0.00  0.00    +0.023 HD
ENDBRANCH  31  37
ENDBRANCH   1  31
BRANCH   5  41
ATOM     41  S   UNL     1      -2.297  -0.239   2.751  0.00  0.00    -0.079 S 
BRANCH  41  42
ATOM     42  C   UNL     1      -3.337  -0.621   1.319  0.00  0.00    +0.017 A 
ATOM     43  C   UNL     1      -3.059  -1.826   0.659  0.00  0.00    -0.044 A 
ATOM     44  C   UNL     1      -3.644  -2.143  -0.569  0.00  0.00    -0.044 A 
ATOM     45  C   UNL     1      -4.572  -1.250  -1.136  0.00  0.00    -0.019 A 
ATOM     46  C   UNL     1      -4.923  -0.085  -0.437  0.00  0.00    -0.051 A 
ATOM     47  C   UNL     1      -4.384   0.229   0.839  0.00  0.00    -0.028 A 
ATOM     48  H   UNL     1      -2.335  -2.506   1.085  0.00  0.00    +0.063 HD
ATOM     49  H   UNL     1      -5.647   0.559  -0.909  0.00  0.00    +0.062 HD
BRANCH  44  50
ATOM     50  C   UNL     1      -3.255  -3.424  -1.261  0.00  0.00    -0.039 C 
ATOM     51  H   UNL     1      -2.426  -3.942  -0.733  0.00  0.00    +0.028 HD
ATOM     52  H   UNL     1      -2.911  -3.210  -2.295  0.00  0.00    +0.028 HD
ATOM     53  H   UNL     1      -4.125  -4.112  -1.295  0.00  0.00    +0.028 HD
ENDBRANCH  44  50
BRANCH  45  54
ATOM     54  C   UNL     1      -5.177  -1.498  -2.497  0.00  0.00    +0.069 C 
ATOM     55  H   UNL     1      -5.446  -2.571  -2.611  0.00  0.00    +0.061 HD
ATOM     56  H   UNL     1      -6.117  -0.916  -2.622  0.00  0.00    +0.061 HD
BRANCH  54  57
ATOM     57  O   UNL     1      -4.260  -1.124  -3.487  0.00  0.00    -0.390 OA
ATOM     58  H   UNL     1      -4.693  -1.329  -4.356  0.00  0.00    +0.210 HD
ENDBRANCH  54  57
ENDBRANCH  45  54
BRANCH  47  59
ATOM     59  C   UNL     1      -5.022   1.366   1.700  0.00  0.00    -0.012 C 
BRANCH  59  60
ATOM     60  C   UNL     1      -6.277   1.997   1.034  0.00  0.00    -0.056 C 
ATOM     61  H   UNL     1      -7.048   1.224   0.824  0.00  0.00    +0.024 HD
ATOM     62  H   UNL     1      -6.009   2.525   0.094  0.00  0.00    +0.024 HD
ATOM     63  H   UNL     1      -6.747   2.753   1.700  0.00  0.00    +0.024 HD
ENDBRANCH  59  60
BRANCH  59  64
ATOM     64  C   UNL     1      -5.503   0.796   3.057  0.00  0.00    -0.056 C 
ATOM     65  H   UNL     1      -6.175  -0.074   2.892  0.00  0.00    +0.024 HD
ATOM     66  H   UNL     1      -6.063   1.563   3.634  0.00  0.00    +0.024 HD
ATOM     67  H   UNL     1      -4.669   0.471   3.704  0.00  0.00    +0.024 HD
ENDBRANCH  59  64
BRANCH  59  68
ATOM     68  C   UNL     1      -4.030   2.522   1.938  0.00  0.00    -0.056 C 
ATOM     69  H   UNL     1      -3.586   2.849   0.973  0.00  0.00    +0.024 HD
ATOM     70  H   UNL     1      -3.227   2.249   2.644  0.00  0.00    +0.024 HD
ATOM     71  H   UNL     1      -4.543   3.398   2.391  0.00  0.00    +0.024 HD
ENDBRANCH  59  68
ENDBRANCH  47  59
ENDBRANCH  41  42
ENDBRANCH   5  41
TORSDOF 16
