REMARK  Name = 
REMARK  16 active torsions:
REMARK  status: ('A' for Active; 'I' for Inactive)
REMARK    1  A    between atoms: C_1  and  C_2
REMARK    2  A    between atoms: C_3  and  O_4
REMARK    3  A    between atoms: C_8  and  C_9
REMARK    4  A    between atoms: N_11  and  C_12
REMARK    5  A    between atoms: C_12  and  C_13
REMARK    6  A    between atoms: C_12  and  C_35
REMARK    7  A    between atoms: C_13  and  C_14
REMARK    8  A    between atoms: C_14  and  O_15
REMARK    9  A    between atoms: C_14  and  C_16
REMARK   10  A    between atoms: C_16  and  C_17
REMARK   11  A    between atoms: C_16  and  N_24
REMARK   12  A    between atoms: C_17  and  C_18
REMARK   13  A    between atoms: C_25  and  C_27
REMARK   14  A    between atoms: C_31  and  O_32
REMARK   15  A    between atoms: C_33  and  C_34
REMARK   16  A    between atoms: C_35  and  C_36
REMARK                            x       y       z     vdW  Elec       q    Type
REMARK                         _______ _______ _______ _____ _____    ______ ____
ROOT
ATOM      1  C   UNL     1       0.430   0.091   0.606  0.00  0.00    +0.076 C 
ATOM      2  H   UNL     1      -0.387   0.058   1.357  0.00  0.00    +0.061 HD
ENDROOT
BRANCH   1   3
ATOM      3  C   UNL     1      -0.103  -0.531  -0.715  0.00  0.00    -0.006 C 
ATOM      4  H   UNL     1      -0.170  -1.634  -0.590  0.00  0.00    +0.031 HD
ATOM      5  H   UNL     1       0.625  -0.360  -1.537  0.00  0.00    +0.031 HD
BRANCH   3   6
ATOM      6  C   UNL     1      -1.498  -0.027  -1.155  0.00  0.00    +0.030 C 
ATOM      7  H   UNL     1      -1.794  -0.636  -2.039  0.00  0.00    +0.050 HD
BRANCH   6  10
ATOM      8  C   UNL     1      -3.055  -1.521   0.190  0.00  0.00    +0.245 C 
ATOM      9  O   UNL     1      -2.661  -2.539  -0.442  0.00  0.00    -0.270 OA
ATOM     10  N   UNL     1      -2.489  -0.233  -0.092  0.00  0.00    -0.308 N 
ATOM     11  H   UNL     1      -2.748   0.572   0.523  0.00  0.00    +0.149 HD
BRANCH   8  17
ATOM     12  C   UNL     1      -5.232  -0.874   1.331  0.00  0.00    +0.003 A 
ATOM     13  C   UNL     1      -6.115  -1.038   2.420  0.00  0.00    +0.120 A 
ATOM     14  C   UNL     1      -5.868  -2.023   3.384  0.00  0.00    -0.020 A 
ATOM     15  C   UNL     1      -4.748  -2.845   3.279  0.00  0.00    -0.058 A 
ATOM     16  C   UNL     1      -3.853  -2.677   2.224  0.00  0.00    -0.049 A 
ATOM     17  C   UNL     1      -4.066  -1.682   1.256  0.00  0.00    +0.043 A 
ATOM     18  H   UNL     1      -6.548  -2.155   4.216  0.00  0.00    +0.065 HD
ATOM     19  H   UNL     1      -4.566  -3.608   4.025  0.00  0.00    +0.062 HD
ATOM     20  H   UNL     1      -2.977  -3.312   2.174  0.00  0.00    +0.063 HD
BRANCH  12  21
ATOM     21  C   UNL     1      -5.548   0.164   0.281  0.00  0.00    -0.036 C 
ATOM     22  H   UNL     1      -5.112  -0.103  -0.703  0.00  0.00    +0.028 HD
ATOM     23  H   UNL     1      -5.159   1.150   0.608  0.00  0.00    +0.028 HD
ATOM     24  H   UNL     1      -6.644   0.249   0.127  0.00  0.00    +0.028 HD
ENDBRANCH  12  21
BRANCH  13  25
ATOM     25  O   UNL     1      -7.240  -0.221   2.541  0.00  0.00    -0.506 OA
ATOM     26  H   UNL     1      -7.888  -0.320   3.313  0.00  0.00    +0.292 HD
ENDBRANCH  13  25
ENDBRANCH   8  17
ENDBRANCH   6  10
BRANCH   6  27
ATOM     27  C   UNL     1      -1.477   1.448  -1.610  0.00  0.00    -0.009 C 
ATOM     28  H   UNL     1      -1.283   2.116  -0.745  0.00  0.00    +0.033 HD
ATOM     29  H   UNL     1      -0.650   1.603  -2.337  0.00  0.00    +0.033 HD
BRANCH  27  30
ATOM     30  C   UNL     1      -2.778   1.836  -2.266  0.00  0.00    -0.046 A 
ATOM     31  C   UNL     1      -3.058   1.425  -3.580  0.00  0.00    -0.059 A 
ATOM     32  C   UNL     1      -4.279   1.753  -4.177  0.00  0.00    -0.062 A 
ATOM     33  C   UNL     1      -5.230   2.490  -3.466  0.00  0.00    -0.062 A 
ATOM     34  C   UNL     1      -4.960   2.903  -2.159  0.00  0.00    -0.062 A 
ATOM     35  C   UNL     1      -3.739   2.579  -1.559  0.00  0.00    -0.059 A 
ATOM     36  H   UNL     1      -2.332   0.847  -4.139  0.00  0.00    +0.062 HD
ATOM     37  H   UNL     1      -4.490   1.432  -5.189  0.00  0.00    +0.062 HD
ATOM     38  H   UNL     1      -6.176   2.741  -3.928  0.00  0.00    +0.062 HD
ATOM     39  H   UNL     1      -5.699   3.471  -1.607  0.00  0.00    +0.062 HD
ATOM     40  H   UNL     1      -3.548   2.899  -0.543  0.00  0.00    +0.062 HD
ENDBRANCH  27  30
ENDBRANCH   6  27
ENDBRANCH   3   6
ENDBRANCH   1   3
BRANCH   1  41
ATOM     41  O   UNL     1       0.792   1.440   0.436  0.00  0.00    -0.390 OA
ATOM     42  H   UNL     1       1.345   1.519  -0.384  0.00  0.00    +0.210 HD
ENDBRANCH   1  41
BRANCH   1  43
ATOM     43  C   UNL     1       1.603  -0.745   1.192  0.00  0.00    +0.053 C 
ATOM     44  H   UNL     1       1.214  -1.782   1.306  0.00  0.00    +0.053 HD
BRANCH  43  45
ATOM     45  N   UNL     1       2.756  -0.779   0.284  0.00  0.00    -0.306 N 
ATOM     46  C   UNL     1       3.646  -1.903   0.215  0.00  0.00    +0.245 C 
ATOM     47  O   UNL     1       3.468  -2.900   0.967  0.00  0.00    -0.270 OA
ATOM     48  H   UNL     1       3.059   0.104  -0.183  0.00  0.00    +0.149 HD
BRANCH  46  49
ATOM     49  C   UNL     1       4.816  -1.876  -0.688  0.00  0.00    +0.043 A 
ATOM     50  C   UNL     1       6.073  -2.204  -0.153  0.00  0.00    -0.049 A 
ATOM     51  C   UNL     1       7.219  -2.140  -0.944  0.00  0.00    -0.058 A 
ATOM     52  C   UNL     1       7.128  -1.748  -2.277  0.00  0.00    -0.020 A 
ATOM     53  C   UNL     1       5.883  -1.437  -2.840  0.00  0.00    +0.120 A 
ATOM     54  C   UNL     1       4.710  -1.525  -2.059  0.00  0.00    +0.003 A 
ATOM     55  H   UNL     1       6.169  -2.486   0.889  0.00  0.00    +0.063 HD
ATOM     56  H   UNL     1       8.184  -2.383  -0.517  0.00  0.00    +0.062 HD
ATOM     57  H   UNL     1       8.027  -1.689  -2.877  0.00  0.00    +0.065 HD
BRANCH  54  58
ATOM     58  C   UNL     1       3.374  -1.236  -2.699  0.00  0.00    -0.036 C 
ATOM     59  H   UNL     1       3.134  -0.158  -2.597  0.00  0.00    +0.028 HD
ATOM     60  H   UNL     1       2.569  -1.843  -2.235  0.00  0.00    +0.028 HD
ATOM     61  H   UNL     1       3.381  -1.498  -3.778  0.00  0.00    +0.028 HD
ENDBRANCH  54  58
BRANCH  53  62
ATOM     62  O   UNL     1       5.811  -1.044  -4.177  0.00  0.00    -0.506 OA
ATOM     63  H   UNL     1       6.639  -0.975  -4.757  0.00  0.00    +0.292 HD
ENDBRANCH  53  62
ENDBRANCH  46  49
ENDBRANCH  43  45
BRANCH  43  64
ATOM     64  C   UNL     1       2.026  -0.297   2.610  0.00  0.00    -0.007 C 
ATOM     65  H   UNL     1       2.708  -1.064   3.038  0.00  0.00    +0.033 HD
ATOM     66  H   UNL     1       1.133  -0.284   3.273  0.00  0.00    +0.033 HD
BRANCH  64  67
ATOM     67  C   UNL     1       2.722   1.043   2.653  0.00  0.00    -0.046 A 
ATOM     68  C   UNL     1       2.013   2.202   3.012  0.00  0.00    -0.059 A 
ATOM     69  C   UNL     1       2.658   3.442   3.042  0.00  0.00    -0.062 A 
ATOM     70  C   UNL     1       4.015   3.535   2.723  0.00  0.00    -0.062 A 
ATOM     71  C   UNL     1       4.731   2.386   2.376  0.00  0.00    -0.062 A 
ATOM     72  C   UNL     1       4.090   1.144   2.344  0.00  0.00    -0.059 A 
ATOM     73  H   UNL     1       0.960   2.147   3.258  0.00  0.00    +0.062 HD
ATOM     74  H   UNL     1       2.105   4.332   3.313  0.00  0.00    +0.062 HD
ATOM     75  H   UNL     1       4.512   4.495   2.747  0.00  0.00    +0.062 HD
ATOM     76  H   UNL     1       5.783   2.458   2.133  0.00  0.00    +0.062 HD
ATOM     77  H   UNL     1       4.660   0.262   2.080  0.00  0.00    +0.062 HD
ENDBRANCH  64  67
ENDBRANCH  43  64
ENDBRANCH   1  43
TORSDOF 16
