REMARK  Name = 
REMARK  17 active torsions:
REMARK  status: ('A' for Active; 'I' for Inactive)
REMARK    1  A    between atoms: C_1  and  O_2
REMARK    2  A    between atoms: O_2  and  C_3
REMARK    3  A    between atoms: C_6  and  S_7
REMARK    4  A    between atoms: S_7  and  N_10
REMARK    5  A    between atoms: N_10  and  C_11
REMARK    6  A    between atoms: N_10  and  C_15
REMARK    7  A    between atoms: C_11  and  C_12
REMARK    8  A    between atoms: C_12  and  C_13
REMARK    9  A    between atoms: C_12  and  C_14
REMARK   10  A    between atoms: C_15  and  C_16
REMARK   11  A    between atoms: C_16  and  O_17
REMARK   12  A    between atoms: C_16  and  C_18
REMARK   13  A    between atoms: C_18  and  C_19
REMARK   14  A    between atoms: C_18  and  N_26
REMARK   15  A    between atoms: C_19  and  C_20
REMARK   16  A    between atoms: C_27  and  O_29
REMARK   17  A    between atoms: O_29  and  C_30
REMARK                            x       y       z     vdW  Elec       q    Type
REMARK                         _______ _______ _______ _____ _____    ______ ____
ROOT
ATOM      1  C   UNL     1      -1.371  -2.564  -0.220  0.00  0.00    +0.057 C 
ATOM      2  H   UNL     1      -2.193  -3.300  -0.062  0.00  0.00    +0.053 HD
ENDROOT
BRANCH   1   3
ATOM      3  N   UNL     1      -2.009  -1.310  -0.635  0.00  0.00    -0.275 N 
ATOM      4  C   UNL     1      -3.166  -0.771   0.017  0.00  0.00    +0.401 C 
ATOM      5  O   UNL     1      -3.649  -1.338   1.035  0.00  0.00    -0.226 OA
ATOM      6  H   UNL     1      -1.714  -0.859  -1.530  0.00  0.00    +0.152 HD
BRANCH   4   7
ATOM      7  O   UNL     1      -3.749   0.396  -0.489  0.00  0.00    -0.444 OA
BRANCH   7   8
ATOM      8  C   UNL     1      -4.910   1.005   0.080  0.00  0.00    +0.135 C 
ATOM      9  C   UNL     1      -5.544   1.969  -0.902  0.00  0.00    +0.088 C 
ATOM     10  O   UNL     1      -6.143   3.028  -0.193  0.00  0.00    -0.347 OA
ATOM     11  C   UNL     1      -5.575   3.059   1.102  0.00  0.00    +0.165 C 
ATOM     12  O   UNL     1      -4.949   4.309   1.353  0.00  0.00    -0.351 OA
ATOM     13  C   UNL     1      -3.882   4.545   0.448  0.00  0.00    +0.051 C 
ATOM     14  C   UNL     1      -2.803   3.444   0.486  0.00  0.00    -0.029 C 
ATOM     15  C   UNL     1      -3.166   2.337   1.475  0.00  0.00    -0.040 C 
ATOM     16  C   UNL     1      -4.627   1.866   1.301  0.00  0.00    +0.049 C 
ATOM     17  H   UNL     1      -5.664   0.225   0.336  0.00  0.00    +0.076 HD
ATOM     18  H   UNL     1      -6.314   1.448  -1.510  0.00  0.00    +0.060 HD
ATOM     19  H   UNL     1      -4.782   2.385  -1.597  0.00  0.00    +0.060 HD
ATOM     20  H   UNL     1      -6.410   2.957   1.828  0.00  0.00    +0.091 HD
ATOM     21  H   UNL     1      -3.411   5.512   0.724  0.00  0.00    +0.056 HD
ATOM     22  H   UNL     1      -4.269   4.678  -0.587  0.00  0.00    +0.056 HD
ATOM     23  H   UNL     1      -1.823   3.882   0.778  0.00  0.00    +0.029 HD
ATOM     24  H   UNL     1      -2.678   3.008  -0.528  0.00  0.00    +0.029 HD
ATOM     25  H   UNL     1      -3.050   2.739   2.506  0.00  0.00    +0.027 HD
ATOM     26  H   UNL     1      -2.454   1.494   1.388  0.00  0.00    +0.027 HD
ATOM     27  H   UNL     1      -4.912   1.298   2.215  0.00  0.00    +0.039 HD
ENDBRANCH   7   8
ENDBRANCH   4   7
ENDBRANCH   1   3
BRANCH   1  28
ATOM     28  C   UNL     1      -0.518  -3.143  -1.375  0.00  0.00    -0.007 C 
ATOM     29  H   UNL     1       0.411  -2.558  -1.497  0.00  0.00    +0.033 HD
ATOM     30  H   UNL     1      -1.079  -3.043  -2.330  0.00  0.00    +0.033 HD
BRANCH  28  31
ATOM     31  C   UNL     1      -0.201  -4.607  -1.177  0.00  0.00    -0.046 A 
ATOM     32  C   UNL     1       1.091  -5.019  -0.805  0.00  0.00    -0.059 A 
ATOM     33  C   UNL     1       1.371  -6.375  -0.614  0.00  0.00    -0.062 A 
ATOM     34  C   UNL     1       0.367  -7.330  -0.794  0.00  0.00    -0.062 A 
ATOM     35  C   UNL     1      -0.918  -6.931  -1.168  0.00  0.00    -0.062 A 
ATOM     36  C   UNL     1      -1.203  -5.576  -1.361  0.00  0.00    -0.059 A 
ATOM     37  H   UNL     1       1.882  -4.295  -0.663  0.00  0.00    +0.062 HD
ATOM     38  H   UNL     1       2.367  -6.686  -0.325  0.00  0.00    +0.062 HD
ATOM     39  H   UNL     1       0.586  -8.380  -0.645  0.00  0.00    +0.062 HD
ATOM     40  H   UNL     1      -1.695  -7.672  -1.310  0.00  0.00    +0.062 HD
ATOM     41  H   UNL     1      -2.203  -5.280  -1.652  0.00  0.00    +0.062 HD
ENDBRANCH  28  31
ENDBRANCH   1  28
BRANCH   1  42
ATOM     42  C   UNL     1      -0.576  -2.430   1.123  0.00  0.00    +0.088 C 
ATOM     43  H   UNL     1       0.288  -3.123   1.076  0.00  0.00    +0.063 HD
BRANCH  42  44
ATOM     44  C   UNL     1      -0.077  -0.999   1.527  0.00  0.00    +0.048 C 
ATOM     45  H   UNL     1       0.137  -1.027   2.617  0.00  0.00    +0.047 HD
ATOM     46  H   UNL     1      -0.895  -0.261   1.451  0.00  0.00    +0.047 HD
BRANCH  44  47
ATOM     47  N   UNL     1       1.161  -0.490   0.889  0.00  0.00    -0.174 NA
BRANCH  47  48
ATOM     48  C   UNL     1       2.274  -1.452   0.762  0.00  0.00    +0.023 C 
ATOM     49  H   UNL     1       2.221  -2.209   1.575  0.00  0.00    +0.045 HD
ATOM     50  H   UNL     1       2.212  -1.984  -0.208  0.00  0.00    +0.045 HD
BRANCH  48  51
ATOM     51  C   UNL     1       3.650  -0.767   0.886  0.00  0.00    -0.032 C 
ATOM     52  H   UNL     1       3.764  -0.019   0.077  0.00  0.00    +0.031 HD
BRANCH  51  53
ATOM     53  C   UNL     1       4.772  -1.797   0.703  0.00  0.00    -0.061 C 
ATOM     54  H   UNL     1       4.722  -2.578   1.491  0.00  0.00    +0.023 HD
ATOM     55  H   UNL     1       5.763  -1.297   0.754  0.00  0.00    +0.023 HD
ATOM     56  H   UNL     1       4.684  -2.285  -0.291  0.00  0.00    +0.023 HD
ENDBRANCH  51  53
BRANCH  51  57
ATOM     57  C   UNL     1       3.802  -0.058   2.239  0.00  0.00    -0.061 C 
ATOM     58  H   UNL     1       3.016   0.715   2.366  0.00  0.00    +0.023 HD
ATOM     59  H   UNL     1       4.789   0.449   2.296  0.00  0.00    +0.023 HD
ATOM     60  H   UNL     1       3.723  -0.786   3.074  0.00  0.00    +0.023 HD
ENDBRANCH  51  57
ENDBRANCH  48  51
ENDBRANCH  47  48
BRANCH  47  61
ATOM     61  S   UNL     1       0.916   0.544  -0.508  0.00  0.00    +0.061 S 
ATOM     62  O   UNL     1       1.175  -0.212  -1.780  0.00  0.00    -0.153 OA
ATOM     63  O   UNL     1      -0.480   1.096  -0.544  0.00  0.00    -0.153 OA
BRANCH  61  67
ATOM     64  C   UNL     1       3.718   4.145  -0.190  0.00  0.00    +0.120 A 
ATOM     65  C   UNL     1       2.773   3.882   0.809  0.00  0.00    -0.018 A 
ATOM     66  C   UNL     1       1.917   2.783   0.703  0.00  0.00    -0.032 A 
ATOM     67  C   UNL     1       1.999   1.928  -0.402  0.00  0.00    +0.106 A 
ATOM     68  C   UNL     1       2.936   2.192  -1.412  0.00  0.00    -0.032 A 
ATOM     69  C   UNL     1       3.793   3.291  -1.306  0.00  0.00    -0.018 A 
ATOM     70  H   UNL     1       2.704   4.532   1.672  0.00  0.00    +0.065 HD
ATOM     71  H   UNL     1       1.193   2.593   1.486  0.00  0.00    +0.064 HD
ATOM     72  H   UNL     1       3.011   1.544  -2.276  0.00  0.00    +0.064 HD
ATOM     73  H   UNL     1       4.510   3.466  -2.097  0.00  0.00    +0.065 HD
BRANCH  64  74
ATOM     74  O   UNL     1       4.557   5.259  -0.036  0.00  0.00    -0.495 OA
BRANCH  74  75
ATOM     75  C   UNL     1       5.561   5.643  -0.970  0.00  0.00    +0.079 C 
ATOM     76  H   UNL     1       5.101   5.870  -1.954  0.00  0.00    +0.066 HD
ATOM     77  H   UNL     1       6.313   4.832  -1.077  0.00  0.00    +0.066 HD
ATOM     78  H   UNL     1       6.072   6.555  -0.598  0.00  0.00    +0.066 HD
ENDBRANCH  74  75
ENDBRANCH  64  74
ENDBRANCH  61  67
ENDBRANCH  47  61
ENDBRANCH  44  47
ENDBRANCH  42  44
BRANCH  42  79
ATOM     79  O   UNL     1      -1.415  -2.894   2.154  0.00  0.00    -0.389 OA
ATOM     80  H   UNL     1      -0.833  -3.195   2.901  0.00  0.00    +0.210 HD
ENDBRANCH  42  79
ENDBRANCH   1  42
TORSDOF 17
