REMARK  Name = 
REMARK  15 active torsions:
REMARK  status: ('A' for Active; 'I' for Inactive)
REMARK    1  A    between atoms: C_1  and  C_2
REMARK    2  A    between atoms: C_2  and  C_3
REMARK    3  A    between atoms: C_3  and  C_4
REMARK    4  A    between atoms: C_4  and  C_5
REMARK    5  A    between atoms: C_5  and  C_6
REMARK    6  A    between atoms: C_6  and  C_7
REMARK    7  A    between atoms: C_14  and  O_15
REMARK    8  A    between atoms: C_16  and  C_17
REMARK    9  A    between atoms: C_17  and  C_18
REMARK   10  A    between atoms: C_17  and  C_20
REMARK   11  A    between atoms: C_18  and  C_19
REMARK   12  A    between atoms: C_24  and  N_25
REMARK   13  A    between atoms: N_25  and  S_26
REMARK   14  A    between atoms: S_26  and  C_29
REMARK   15  A    between atoms: C_32  and  C_33
REMARK                            x       y       z     vdW  Elec       q    Type
REMARK                         _______ _______ _______ _____ _____    ______ ____
ROOT
ATOM      1  C   UNL     1      -2.982   0.438  -0.780  0.00  0.00    +0.260 C 
ATOM      2  O   UNL     1      -2.063   0.595  -1.867  0.00  0.00    -0.421 OA
ATOM      3  C   UNL     1      -0.692   0.326  -1.750  0.00  0.00    +0.293 C 
ATOM      4  C   UNL     1      -0.234  -0.468  -0.758  0.00  0.00    +0.123 C 
ATOM      5  C   UNL     1      -1.250  -1.034   0.162  0.00  0.00    +0.346 C 
ATOM      6  O   UNL     1      -0.926  -1.849   1.066  0.00  0.00    -0.245 OA
ATOM      7  O   UNL     1      -2.590  -0.678   0.018  0.00  0.00    -0.419 OA
ENDROOT
BRANCH   1   8
ATOM      8  C   UNL     1      -2.954   1.744   0.069  0.00  0.00    +0.029 C 
ATOM      9  H   UNL     1      -3.620   2.513  -0.380  0.00  0.00    +0.034 HD
ATOM     10  H   UNL     1      -1.929   2.170   0.024  0.00  0.00    +0.034 HD
BRANCH   8  11
ATOM     11  C   UNL     1      -3.286   1.577   1.566  0.00  0.00    -0.021 C 
ATOM     12  H   UNL     1      -2.564   0.877   2.040  0.00  0.00    +0.032 HD
ATOM     13  H   UNL     1      -3.134   2.557   2.069  0.00  0.00    +0.032 HD
BRANCH  11  14
ATOM     14  C   UNL     1      -4.704   1.135   1.812  0.00  0.00    -0.047 A 
ATOM     15  C   UNL     1      -5.769   2.025   1.593  0.00  0.00    -0.059 A 
ATOM     16  C   UNL     1      -7.088   1.606   1.794  0.00  0.00    -0.062 A 
ATOM     17  C   UNL     1      -7.353   0.300   2.215  0.00  0.00    -0.062 A 
ATOM     18  C   UNL     1      -6.298  -0.589   2.439  0.00  0.00    -0.062 A 
ATOM     19  C   UNL     1      -4.978  -0.175   2.241  0.00  0.00    -0.059 A 
ATOM     20  H   UNL     1      -5.578   3.038   1.262  0.00  0.00    +0.062 HD
ATOM     21  H   UNL     1      -7.906   2.294   1.620  0.00  0.00    +0.062 HD
ATOM     22  H   UNL     1      -8.374  -0.022   2.368  0.00  0.00    +0.062 HD
ATOM     23  H   UNL     1      -6.505  -1.601   2.764  0.00  0.00    +0.062 HD
ATOM     24  H   UNL     1      -4.172  -0.878   2.411  0.00  0.00    +0.062 HD
ENDBRANCH  11  14
ENDBRANCH   8  11
ENDBRANCH   1   8
BRANCH   1  25
ATOM     25  C   UNL     1      -4.387   0.182  -1.366  0.00  0.00    +0.025 C 
ATOM     26  H   UNL     1      -5.128   0.066  -0.551  0.00  0.00    +0.034 HD
ATOM     27  H   UNL     1      -4.692   1.057  -1.982  0.00  0.00    +0.034 HD
BRANCH  25  28
ATOM     28  C   UNL     1      -4.431  -1.080  -2.242  0.00  0.00    -0.049 C 
ATOM     29  H   UNL     1      -4.132  -1.967  -1.643  0.00  0.00    +0.027 HD
ATOM     30  H   UNL     1      -3.724  -0.976  -3.094  0.00  0.00    +0.027 HD
BRANCH  28  31
ATOM     31  C   UNL     1      -5.833  -1.316  -2.796  0.00  0.00    -0.065 C 
ATOM     32  H   UNL     1      -5.835  -2.231  -3.425  0.00  0.00    +0.023 HD
ATOM     33  H   UNL     1      -6.151  -0.455  -3.421  0.00  0.00    +0.023 HD
ATOM     34  H   UNL     1      -6.558  -1.454  -1.965  0.00  0.00    +0.023 HD
ENDBRANCH  28  31
ENDBRANCH  25  28
ENDBRANCH   1  25
BRANCH   4  35
ATOM     35  C   UNL     1       1.249  -0.751  -0.486  0.00  0.00    +0.023 C 
ATOM     36  H   UNL     1       1.255  -1.762  -0.019  0.00  0.00    +0.040 HD
BRANCH  35  37
ATOM     37  C   UNL     1       1.835   0.193   0.554  0.00  0.00    -0.038 A 
ATOM     38  C   UNL     1       1.495   1.559   0.593  0.00  0.00    -0.058 A 
ATOM     39  C   UNL     1       2.092   2.409   1.526  0.00  0.00    -0.060 A 
ATOM     40  C   UNL     1       3.059   1.920   2.406  0.00  0.00    -0.039 A 
ATOM     41  C   UNL     1       3.445   0.573   2.357  0.00  0.00    +0.048 A 
ATOM     42  C   UNL     1       2.810  -0.288   1.445  0.00  0.00    -0.036 A 
ATOM     43  H   UNL     1       0.775   1.974  -0.098  0.00  0.00    +0.062 HD
ATOM     44  H   UNL     1       1.817   3.456   1.555  0.00  0.00    +0.062 HD
ATOM     45  H   UNL     1       3.528   2.597   3.108  0.00  0.00    +0.064 HD
ATOM     46  H   UNL     1       3.075  -1.336   1.415  0.00  0.00    +0.064 HD
BRANCH  41  47
ATOM     47  N   UNL     1       4.490   0.106   3.226  0.00  0.00    -0.216 N 
ATOM     48  H   UNL     1       4.793   0.708   4.025  0.00  0.00    +0.174 HD
BRANCH  47  49
ATOM     49  S   UNL     1       5.476  -1.274   2.857  0.00  0.00    +0.072 S 
ATOM     50  O   UNL     1       6.741  -1.215   3.666  0.00  0.00    -0.150 OA
ATOM     51  O   UNL     1       4.726  -2.526   3.215  0.00  0.00    -0.150 OA
BRANCH  49  52
ATOM     52  C   UNL     1       5.898  -1.260   1.146  0.00  0.00    +0.109 A 
ATOM     53  C   UNL     1       5.598  -2.357   0.325  0.00  0.00    -0.034 A 
ATOM     54  C   UNL     1       5.887  -2.311  -1.043  0.00  0.00    -0.042 A 
ATOM     55  C   UNL     1       6.479  -1.170  -1.597  0.00  0.00    +0.052 A 
ATOM     56  C   UNL     1       6.785  -0.076  -0.778  0.00  0.00    -0.042 A 
ATOM     57  C   UNL     1       6.493  -0.121   0.589  0.00  0.00    -0.034 A 
ATOM     58  H   UNL     1       5.129  -3.242   0.736  0.00  0.00    +0.064 HD
ATOM     59  H   UNL     1       5.641  -3.161  -1.668  0.00  0.00    +0.063 HD
ATOM     60  H   UNL     1       7.239   0.814  -1.196  0.00  0.00    +0.063 HD
ATOM     61  H   UNL     1       6.719   0.736   1.211  0.00  0.00    +0.064 HD
BRANCH  55  62
ATOM     62  C   UNL     1       6.760  -1.116  -3.007  0.00  0.00    +0.099 C 
ATOM     63  N   UNL     1       6.986  -1.072  -4.142  0.00  0.00    -0.191 NA
ENDBRANCH  55  62
ENDBRANCH  49  52
ENDBRANCH  47  49
ENDBRANCH  41  47
ENDBRANCH  35  37
BRANCH  35  64
ATOM     64  C   UNL     1       2.157  -0.940  -1.740  0.00  0.00    -0.045 C 
ATOM     65  H   UNL     1       1.544  -1.201  -2.629  0.00  0.00    +0.027 HD
ATOM     66  H   UNL     1       2.819  -1.819  -1.570  0.00  0.00    +0.027 HD
BRANCH  64  67
ATOM     67  C   UNL     1       3.080   0.240  -2.072  0.00  0.00    -0.064 C 
ATOM     68  H   UNL     1       3.586   0.053  -3.043  0.00  0.00    +0.023 HD
ATOM     69  H   UNL     1       3.863   0.345  -1.292  0.00  0.00    +0.023 HD
ATOM     70  H   UNL     1       2.524   1.195  -2.141  0.00  0.00    +0.023 HD
ENDBRANCH  64  67
ENDBRANCH  35  64
ENDBRANCH   4  35
BRANCH   3  71
ATOM     71  O   UNL     1       0.165   0.897  -2.681  0.00  0.00    -0.480 OA
ATOM     72  H   UNL     1      -0.194   1.491  -3.418  0.00  0.00    +0.295 HD
ENDBRANCH   3  71
TORSDOF 15
