REMARK  Name = 
REMARK  9 active torsions:
REMARK  status: ('A' for Active; 'I' for Inactive)
REMARK    1  A    between atoms: C_1  and  C_2
REMARK    2  A    between atoms: C_2  and  C_3
REMARK    3  A    between atoms: C_3  and  C_4
REMARK    4  A    between atoms: C_3  and  C_22
REMARK    5  A    between atoms: C_8  and  N_9
REMARK    6  A    between atoms: N_9  and  S_10
REMARK    7  A    between atoms: S_10  and  C_13
REMARK    8  A    between atoms: C_16  and  C_17
REMARK    9  A    between atoms: C_23  and  O_24
REMARK                            x       y       z     vdW  Elec       q    Type
REMARK                         _______ _______ _______ _____ _____    ______ ____
ROOT
ATOM      1  C   UNL     1      -0.619  -2.300   0.396  0.00  0.00    +0.019 C 
ATOM      2  H   UNL     1      -1.192  -2.678   1.271  0.00  0.00    +0.040 HD
ENDROOT
BRANCH   1   3
ATOM      3  C   UNL     1      -1.395  -1.119  -0.202  0.00  0.00    +0.086 A 
ATOM      4  C   UNL     1      -2.794  -1.040  -0.044  0.00  0.00    +0.134 A 
ATOM      5  C   UNL     1      -3.512   0.019  -0.651  0.00  0.00    +0.033 A 
ATOM      6  C   UNL     1      -5.016   0.140  -0.503  0.00  0.00    -0.021 C 
ATOM      7  C   UNL     1      -5.364   0.987   0.735  0.00  0.00    -0.049 C 
ATOM      8  C   UNL     1      -6.091   2.307   0.421  0.00  0.00    -0.053 C 
ATOM      9  C   UNL     1      -5.537   3.147  -0.750  0.00  0.00    -0.053 C 
ATOM     10  C   UNL     1      -3.997   3.214  -0.853  0.00  0.00    -0.046 C 
ATOM     11  C   UNL     1      -3.412   2.253  -1.915  0.00  0.00    +0.006 C 
ATOM     12  C   UNL     1      -2.773   1.024  -1.317  0.00  0.00    +0.116 A 
ATOM     13  O   UNL     1      -1.457   0.905  -1.444  0.00  0.00    -0.427 OA
ATOM     14  C   UNL     1      -0.759  -0.107  -0.952  0.00  0.00    +0.344 A 
ATOM     15  O   UNL     1       0.482  -0.140  -1.163  0.00  0.00    -0.245 OA
ATOM     16  H   UNL     1      -5.491  -0.859  -0.431  0.00  0.00    +0.032 HD
ATOM     17  H   UNL     1      -5.467   0.549  -1.428  0.00  0.00    +0.032 HD
ATOM     18  H   UNL     1      -6.020   0.387   1.403  0.00  0.00    +0.027 HD
ATOM     19  H   UNL     1      -4.456   1.214   1.338  0.00  0.00    +0.027 HD
ATOM     20  H   UNL     1      -7.159   2.081   0.207  0.00  0.00    +0.027 HD
ATOM     21  H   UNL     1      -6.077   2.930   1.342  0.00  0.00    +0.027 HD
ATOM     22  H   UNL     1      -5.919   4.183  -0.613  0.00  0.00    +0.027 HD
ATOM     23  H   UNL     1      -5.989   2.803  -1.705  0.00  0.00    +0.027 HD
ATOM     24  H   UNL     1      -3.517   3.071   0.139  0.00  0.00    +0.027 HD
ATOM     25  H   UNL     1      -3.733   4.250  -1.164  0.00  0.00    +0.027 HD
ATOM     26  H   UNL     1      -2.626   2.805  -2.477  0.00  0.00    +0.034 HD
ATOM     27  H   UNL     1      -4.157   1.959  -2.683  0.00  0.00    +0.034 HD
BRANCH   4  28
ATOM     28  O   UNL     1      -3.435  -2.012   0.734  0.00  0.00    -0.506 OA
ATOM     29  H   UNL     1      -4.396  -1.955   1.039  0.00  0.00    +0.292 HD
ENDBRANCH   4  28
ENDBRANCH   1   3
BRANCH   1  30
ATOM     30  C   UNL     1       0.713  -1.881   1.021  0.00  0.00    -0.038 A 
ATOM     31  C   UNL     1       0.694  -0.888   2.019  0.00  0.00    -0.058 A 
ATOM     32  C   UNL     1       1.876  -0.457   2.621  0.00  0.00    -0.060 A 
ATOM     33  C   UNL     1       3.098  -1.012   2.244  0.00  0.00    -0.039 A 
ATOM     34  C   UNL     1       3.148  -2.013   1.261  0.00  0.00    +0.048 A 
ATOM     35  C   UNL     1       1.954  -2.457   0.671  0.00  0.00    -0.036 A 
ATOM     36  H   UNL     1      -0.244  -0.441   2.327  0.00  0.00    +0.062 HD
ATOM     37  H   UNL     1       1.843   0.311   3.383  0.00  0.00    +0.062 HD
ATOM     38  H   UNL     1       3.996  -0.663   2.733  0.00  0.00    +0.064 HD
ATOM     39  H   UNL     1       2.017  -3.242  -0.066  0.00  0.00    +0.064 HD
BRANCH  34  40
ATOM     40  N   UNL     1       4.395  -2.596   0.846  0.00  0.00    -0.216 N 
ATOM     41  H   UNL     1       4.383  -3.471   0.274  0.00  0.00    +0.174 HD
BRANCH  40  42
ATOM     42  S   UNL     1       5.922  -1.789   1.014  0.00  0.00    +0.072 S 
ATOM     43  O   UNL     1       6.945  -2.475   0.153  0.00  0.00    -0.150 OA
ATOM     44  O   UNL     1       6.361  -1.861   2.450  0.00  0.00    -0.150 OA
BRANCH  42  45
ATOM     45  C   UNL     1       5.772  -0.115   0.489  0.00  0.00    +0.109 A 
ATOM     46  C   UNL     1       5.010   0.194  -0.646  0.00  0.00    -0.034 A 
ATOM     47  C   UNL     1       4.865   1.523  -1.056  0.00  0.00    -0.042 A 
ATOM     48  C   UNL     1       5.489   2.551  -0.338  0.00  0.00    +0.052 A 
ATOM     49  C   UNL     1       6.257   2.244   0.792  0.00  0.00    -0.042 A 
ATOM     50  C   UNL     1       6.399   0.915   1.204  0.00  0.00    -0.034 A 
ATOM     51  H   UNL     1       4.521  -0.592  -1.207  0.00  0.00    +0.064 HD
ATOM     52  H   UNL     1       4.269   1.748  -1.932  0.00  0.00    +0.063 HD
ATOM     53  H   UNL     1       6.745   3.031   1.355  0.00  0.00    +0.063 HD
ATOM     54  H   UNL     1       6.994   0.693   2.080  0.00  0.00    +0.064 HD
BRANCH  48  55
ATOM     55  C   UNL     1       5.339   3.919  -0.759  0.00  0.00    +0.099 C 
ATOM     56  N   UNL     1       5.219   5.019  -1.098  0.00  0.00    -0.191 NA
ENDBRANCH  48  55
ENDBRANCH  42  45
ENDBRANCH  40  42
ENDBRANCH  34  40
ENDBRANCH   1  30
BRANCH   1  57
ATOM     57  C   UNL     1      -0.582  -3.503  -0.584  0.00  0.00    -0.045 C 
ATOM     58  H   UNL     1       0.020  -4.330  -0.149  0.00  0.00    +0.027 HD
ATOM     59  H   UNL     1      -1.614  -3.903  -0.688  0.00  0.00    +0.027 HD
BRANCH  57  60
ATOM     60  C   UNL     1      -0.073  -3.174  -1.992  0.00  0.00    -0.064 C 
ATOM     61  H   UNL     1      -0.805  -2.533  -2.526  0.00  0.00    +0.023 HD
ATOM     62  H   UNL     1       0.042  -4.115  -2.570  0.00  0.00    +0.023 HD
ATOM     63  H   UNL     1       0.906  -2.658  -1.966  0.00  0.00    +0.023 HD
ENDBRANCH  57  60
ENDBRANCH   1  57
TORSDOF 9
