REMARK  Name = 
REMARK  9 active torsions:
REMARK  status: ('A' for Active; 'I' for Inactive)
REMARK    1  A    between atoms: C_1  and  C_2
REMARK    2  A    between atoms: C_2  and  C_3
REMARK    3  A    between atoms: C_3  and  C_4
REMARK    4  A    between atoms: C_3  and  C_22
REMARK    5  A    between atoms: C_8  and  N_9
REMARK    6  A    between atoms: N_9  and  S_10
REMARK    7  A    between atoms: S_10  and  C_13
REMARK    8  A    between atoms: C_16  and  C_17
REMARK    9  A    between atoms: C_23  and  O_24
REMARK                            x       y       z     vdW  Elec       q    Type
REMARK                         _______ _______ _______ _____ _____    ______ ____
ROOT
ATOM      1  C   UNL     1      -0.740  -1.033  -2.295  0.00  0.00    +0.019 C 
ATOM      2  H   UNL     1      -1.488  -0.400  -2.822  0.00  0.00    +0.040 HD
ENDROOT
BRANCH   1   3
ATOM      3  C   UNL     1      -0.898  -0.714  -0.800  0.00  0.00    +0.086 A 
ATOM      4  C   UNL     1      -1.203   0.608  -0.414  0.00  0.00    +0.134 A 
ATOM      5  C   UNL     1      -1.363   0.929   0.956  0.00  0.00    +0.033 A 
ATOM      6  C   UNL     1      -1.741   2.332   1.392  0.00  0.00    -0.021 C 
ATOM      7  C   UNL     1      -3.254   2.578   1.299  0.00  0.00    -0.049 C 
ATOM      8  C   UNL     1      -4.115   1.499   1.980  0.00  0.00    -0.053 C 
ATOM      9  C   UNL     1      -3.774   1.280   3.469  0.00  0.00    -0.053 C 
ATOM     10  C   UNL     1      -2.991  -0.020   3.735  0.00  0.00    -0.046 C 
ATOM     11  C   UNL     1      -1.498   0.054   3.379  0.00  0.00    +0.006 C 
ATOM     12  C   UNL     1      -1.245  -0.120   1.900  0.00  0.00    +0.116 A 
ATOM     13  O   UNL     1      -0.912  -1.338   1.494  0.00  0.00    -0.427 OA
ATOM     14  C   UNL     1      -0.713  -1.667   0.227  0.00  0.00    +0.344 A 
ATOM     15  O   UNL     1      -0.360  -2.847  -0.030  0.00  0.00    -0.245 OA
ATOM     16  H   UNL     1      -1.399   2.555   2.418  0.00  0.00    +0.032 HD
ATOM     17  H   UNL     1      -1.201   3.087   0.786  0.00  0.00    +0.032 HD
ATOM     18  H   UNL     1      -3.549   2.637   0.230  0.00  0.00    +0.027 HD
ATOM     19  H   UNL     1      -3.482   3.567   1.755  0.00  0.00    +0.027 HD
ATOM     20  H   UNL     1      -4.056   0.548   1.407  0.00  0.00    +0.027 HD
ATOM     21  H   UNL     1      -5.174   1.831   1.907  0.00  0.00    +0.027 HD
ATOM     22  H   UNL     1      -4.734   1.201   4.026  0.00  0.00    +0.027 HD
ATOM     23  H   UNL     1      -3.241   2.153   3.902  0.00  0.00    +0.027 HD
ATOM     24  H   UNL     1      -3.062  -0.230   4.825  0.00  0.00    +0.027 HD
ATOM     25  H   UNL     1      -3.472  -0.880   3.217  0.00  0.00    +0.027 HD
ATOM     26  H   UNL     1      -1.028   0.967   3.792  0.00  0.00    +0.034 HD
ATOM     27  H   UNL     1      -0.991  -0.784   3.906  0.00  0.00    +0.034 HD
BRANCH   4  28
ATOM     28  O   UNL     1      -1.349   1.576  -1.416  0.00  0.00    -0.506 OA
ATOM     29  H   UNL     1      -1.627   2.533  -1.254  0.00  0.00    +0.292 HD
ENDBRANCH   4  28
ENDBRANCH   1   3
BRANCH   1  30
ATOM     30  C   UNL     1       0.646  -0.652  -2.784  0.00  0.00    -0.038 A 
ATOM     31  C   UNL     1       0.792   0.204  -3.890  0.00  0.00    -0.058 A 
ATOM     32  C   UNL     1       2.062   0.528  -4.369  0.00  0.00    -0.060 A 
ATOM     33  C   UNL     1       3.200   0.010  -3.749  0.00  0.00    -0.039 A 
ATOM     34  C   UNL     1       3.080  -0.834  -2.636  0.00  0.00    +0.048 A 
ATOM     35  C   UNL     1       1.798  -1.176  -2.171  0.00  0.00    -0.036 A 
ATOM     36  H   UNL     1      -0.078   0.613  -4.388  0.00  0.00    +0.062 HD
ATOM     37  H   UNL     1       2.165   1.184  -5.224  0.00  0.00    +0.062 HD
ATOM     38  H   UNL     1       4.179   0.279  -4.126  0.00  0.00    +0.064 HD
ATOM     39  H   UNL     1       1.690  -1.853  -1.338  0.00  0.00    +0.064 HD
BRANCH  34  40
ATOM     40  N   UNL     1       4.266  -1.328  -1.994  0.00  0.00    -0.216 N 
ATOM     41  H   UNL     1       5.186  -1.228  -2.480  0.00  0.00    +0.174 HD
BRANCH  40  42
ATOM     42  S   UNL     1       4.301  -1.830  -0.332  0.00  0.00    +0.072 S 
ATOM     43  O   UNL     1       3.646  -3.177  -0.211  0.00  0.00    -0.150 OA
ATOM     44  O   UNL     1       5.729  -1.935   0.123  0.00  0.00    -0.150 OA
BRANCH  42  45
ATOM     45  C   UNL     1       3.474  -0.643   0.674  0.00  0.00    +0.109 A 
ATOM     46  C   UNL     1       2.758  -1.050   1.808  0.00  0.00    -0.034 A 
ATOM     47  C   UNL     1       2.128  -0.101   2.620  0.00  0.00    -0.042 A 
ATOM     48  C   UNL     1       2.202   1.260   2.296  0.00  0.00    +0.052 A 
ATOM     49  C   UNL     1       2.908   1.667   1.158  0.00  0.00    -0.042 A 
ATOM     50  C   UNL     1       3.547   0.720   0.354  0.00  0.00    -0.034 A 
ATOM     51  H   UNL     1       2.695  -2.099   2.071  0.00  0.00    +0.064 HD
ATOM     52  H   UNL     1       1.588  -0.428   3.500  0.00  0.00    +0.063 HD
ATOM     53  H   UNL     1       2.974   2.717   0.899  0.00  0.00    +0.063 HD
ATOM     54  H   UNL     1       4.103   1.050  -0.514  0.00  0.00    +0.064 HD
BRANCH  48  55
ATOM     55  C   UNL     1       1.575   2.240   3.143  0.00  0.00    +0.099 C 
ATOM     56  N   UNL     1       1.073   3.029   3.825  0.00  0.00    -0.191 NA
ENDBRANCH  48  55
ENDBRANCH  42  45
ENDBRANCH  40  42
ENDBRANCH  34  40
ENDBRANCH   1  30
BRANCH   1  57
ATOM     57  C   UNL     1      -1.099  -2.483  -2.700  0.00  0.00    -0.045 C 
ATOM     58  H   UNL     1      -2.022  -2.799  -2.165  0.00  0.00    +0.027 HD
ATOM     59  H   UNL     1      -0.279  -3.183  -2.435  0.00  0.00    +0.027 HD
BRANCH  57  60
ATOM     60  C   UNL     1      -1.357  -2.618  -4.202  0.00  0.00    -0.064 C 
ATOM     61  H   UNL     1      -2.193  -1.956  -4.515  0.00  0.00    +0.023 HD
ATOM     62  H   UNL     1      -0.445  -2.358  -4.779  0.00  0.00    +0.023 HD
ATOM     63  H   UNL     1      -1.633  -3.668  -4.438  0.00  0.00    +0.023 HD
ENDBRANCH  57  60
ENDBRANCH   1  57
TORSDOF 9
