REMARK  Name = 
REMARK  15 active torsions:
REMARK  status: ('A' for Active; 'I' for Inactive)
REMARK    1  A    between atoms: C_1  and  C_2
REMARK    2  A    between atoms: C_2  and  C_3
REMARK    3  A    between atoms: C_3  and  C_4
REMARK    4  A    between atoms: C_4  and  C_5
REMARK    5  A    between atoms: C_5  and  C_6
REMARK    6  A    between atoms: C_6  and  C_7
REMARK    7  A    between atoms: C_14  and  O_15
REMARK    8  A    between atoms: C_16  and  C_17
REMARK    9  A    between atoms: C_17  and  C_18
REMARK   10  A    between atoms: C_17  and  C_20
REMARK   11  A    between atoms: C_18  and  C_19
REMARK   12  A    between atoms: C_24  and  N_25
REMARK   13  A    between atoms: N_25  and  S_26
REMARK   14  A    between atoms: S_26  and  C_29
REMARK   15  A    between atoms: C_32  and  C_33
REMARK                            x       y       z     vdW  Elec       q    Type
REMARK                         _______ _______ _______ _____ _____    ______ ____
ROOT
ATOM      1  C   UNL     1      -2.448   0.483   0.886  0.00  0.00    +0.260 C 
ATOM      2  O   UNL     1      -1.095   0.466   1.354  0.00  0.00    -0.421 OA
ATOM      3  C   UNL     1      -0.367  -0.713   1.562  0.00  0.00    +0.293 C 
ATOM      4  C   UNL     1      -0.792  -1.883   1.043  0.00  0.00    +0.123 C 
ATOM      5  C   UNL     1      -1.988  -1.831   0.172  0.00  0.00    +0.346 C 
ATOM      6  O   UNL     1      -2.373  -2.845  -0.468  0.00  0.00    -0.245 OA
ATOM      7  O   UNL     1      -2.680  -0.630   0.020  0.00  0.00    -0.419 OA
ENDROOT
BRANCH   1   8
ATOM      8  C   UNL     1      -2.683   1.793   0.105  0.00  0.00    +0.029 C 
ATOM      9  H   UNL     1      -2.600   2.656   0.802  0.00  0.00    +0.034 HD
ATOM     10  H   UNL     1      -3.705   1.793  -0.331  0.00  0.00    +0.034 HD
BRANCH   8  11
ATOM     11  C   UNL     1      -1.672   1.973  -1.039  0.00  0.00    -0.021 C 
ATOM     12  H   UNL     1      -1.749   1.121  -1.749  0.00  0.00    +0.032 HD
ATOM     13  H   UNL     1      -0.636   1.973  -0.638  0.00  0.00    +0.032 HD
BRANCH  11  14
ATOM     14  C   UNL     1      -1.921   3.267  -1.766  0.00  0.00    -0.047 A 
ATOM     15  C   UNL     1      -1.346   4.461  -1.299  0.00  0.00    -0.059 A 
ATOM     16  C   UNL     1      -1.595   5.667  -1.962  0.00  0.00    -0.062 A 
ATOM     17  C   UNL     1      -2.425   5.691  -3.086  0.00  0.00    -0.062 A 
ATOM     18  C   UNL     1      -3.012   4.509  -3.546  0.00  0.00    -0.062 A 
ATOM     19  C   UNL     1      -2.766   3.300  -2.887  0.00  0.00    -0.059 A 
ATOM     20  H   UNL     1      -0.705   4.456  -0.427  0.00  0.00    +0.062 HD
ATOM     21  H   UNL     1      -1.145   6.583  -1.603  0.00  0.00    +0.062 HD
ATOM     22  H   UNL     1      -2.617   6.625  -3.597  0.00  0.00    +0.062 HD
ATOM     23  H   UNL     1      -3.660   4.529  -4.413  0.00  0.00    +0.062 HD
ATOM     24  H   UNL     1      -3.233   2.393  -3.249  0.00  0.00    +0.062 HD
ENDBRANCH  11  14
ENDBRANCH   8  11
ENDBRANCH   1   8
BRANCH   1  25
ATOM     25  C   UNL     1      -3.381   0.382   2.116  0.00  0.00    +0.025 C 
ATOM     26  H   UNL     1      -3.090  -0.519   2.700  0.00  0.00    +0.034 HD
ATOM     27  H   UNL     1      -3.222   1.265   2.773  0.00  0.00    +0.034 HD
BRANCH  25  28
ATOM     28  C   UNL     1      -4.873   0.275   1.759  0.00  0.00    -0.049 C 
ATOM     29  H   UNL     1      -5.038  -0.564   1.049  0.00  0.00    +0.027 HD
ATOM     30  H   UNL     1      -5.221   1.216   1.285  0.00  0.00    +0.027 HD
BRANCH  28  31
ATOM     31  C   UNL     1      -5.718   0.029   3.006  0.00  0.00    -0.065 C 
ATOM     32  H   UNL     1      -6.790  -0.030   2.724  0.00  0.00    +0.023 HD
ATOM     33  H   UNL     1      -5.587   0.861   3.731  0.00  0.00    +0.023 HD
ATOM     34  H   UNL     1      -5.425  -0.927   3.489  0.00  0.00    +0.023 HD
ENDBRANCH  28  31
ENDBRANCH  25  28
ENDBRANCH   1  25
BRANCH   4  35
ATOM     35  C   UNL     1      -0.025  -3.192   1.211  0.00  0.00    +0.023 C 
ATOM     36  H   UNL     1      -0.637  -4.005   0.762  0.00  0.00    +0.040 HD
BRANCH  35  37
ATOM     37  C   UNL     1       1.276  -3.144   0.420  0.00  0.00    -0.038 A 
ATOM     38  C   UNL     1       1.235  -3.411  -0.960  0.00  0.00    -0.058 A 
ATOM     39  C   UNL     1       2.378  -3.269  -1.748  0.00  0.00    -0.060 A 
ATOM     40  C   UNL     1       3.573  -2.834  -1.176  0.00  0.00    -0.039 A 
ATOM     41  C   UNL     1       3.636  -2.550   0.197  0.00  0.00    +0.048 A 
ATOM     42  C   UNL     1       2.496  -2.729   0.992  0.00  0.00    -0.036 A 
ATOM     43  H   UNL     1       0.308  -3.714  -1.433  0.00  0.00    +0.062 HD
ATOM     44  H   UNL     1       2.333  -3.478  -2.809  0.00  0.00    +0.062 HD
ATOM     45  H   UNL     1       4.445  -2.713  -1.804  0.00  0.00    +0.064 HD
ATOM     46  H   UNL     1       2.565  -2.496   2.044  0.00  0.00    +0.064 HD
BRANCH  41  47
ATOM     47  N   UNL     1       4.833  -2.024   0.784  0.00  0.00    -0.216 N 
ATOM     48  H   UNL     1       4.995  -2.153   1.808  0.00  0.00    +0.174 HD
BRANCH  47  49
ATOM     49  S   UNL     1       5.749  -0.787  -0.013  0.00  0.00    +0.072 S 
ATOM     50  O   UNL     1       6.535  -0.008   1.004  0.00  0.00    -0.150 OA
ATOM     51  O   UNL     1       6.700  -1.424  -0.987  0.00  0.00    -0.150 OA
BRANCH  49  52
ATOM     52  C   UNL     1       4.641   0.307  -0.838  0.00  0.00    +0.109 A 
ATOM     53  C   UNL     1       4.790   0.585  -2.204  0.00  0.00    -0.034 A 
ATOM     54  C   UNL     1       3.872   1.413  -2.857  0.00  0.00    -0.042 A 
ATOM     55  C   UNL     1       2.798   1.969  -2.149  0.00  0.00    +0.052 A 
ATOM     56  C   UNL     1       2.650   1.696  -0.783  0.00  0.00    -0.042 A 
ATOM     57  C   UNL     1       3.568   0.868  -0.131  0.00  0.00    -0.034 A 
ATOM     58  H   UNL     1       5.608   0.154  -2.767  0.00  0.00    +0.064 HD
ATOM     59  H   UNL     1       3.996   1.616  -3.914  0.00  0.00    +0.063 HD
ATOM     60  H   UNL     1       1.825   2.121  -0.224  0.00  0.00    +0.063 HD
ATOM     61  H   UNL     1       3.436   0.653   0.922  0.00  0.00    +0.064 HD
BRANCH  55  62
ATOM     62  C   UNL     1       1.851   2.816  -2.826  0.00  0.00    +0.099 C 
ATOM     63  N   UNL     1       1.093   3.496  -3.374  0.00  0.00    -0.191 NA
ENDBRANCH  55  62
ENDBRANCH  49  52
ENDBRANCH  47  49
ENDBRANCH  41  47
ENDBRANCH  35  37
BRANCH  35  64
ATOM     64  C   UNL     1       0.110  -3.604   2.698  0.00  0.00    -0.045 C 
ATOM     65  H   UNL     1      -0.901  -3.590   3.162  0.00  0.00    +0.027 HD
ATOM     66  H   UNL     1       0.734  -2.895   3.276  0.00  0.00    +0.027 HD
BRANCH  64  67
ATOM     67  C   UNL     1       0.680  -5.014   2.861  0.00  0.00    -0.064 C 
ATOM     68  H   UNL     1       0.709  -5.280   3.939  0.00  0.00    +0.023 HD
ATOM     69  H   UNL     1       1.713  -5.070   2.460  0.00  0.00    +0.023 HD
ATOM     70  H   UNL     1       0.042  -5.754   2.333  0.00  0.00    +0.023 HD
ENDBRANCH  64  67
ENDBRANCH  35  64
ENDBRANCH   4  35
BRANCH   3  71
ATOM     71  O   UNL     1       0.814  -0.634   2.290  0.00  0.00    -0.480 OA
ATOM     72  H   UNL     1       1.135   0.252   2.660  0.00  0.00    +0.295 HD
ENDBRANCH   3  71
TORSDOF 15
