REMARK  Name = 
REMARK  14 active torsions:
REMARK  status: ('A' for Active; 'I' for Inactive)
REMARK    1  A    between atoms: C_1  and  C_2
REMARK    2  A    between atoms: C_2  and  C_3
REMARK    3  A    between atoms: C_2  and  C_4
REMARK    4  A    between atoms: C_4  and  C_5
REMARK    5  A    between atoms: C_5  and  N_6
REMARK    6  A    between atoms: N_6  and  C_7
REMARK    7  A    between atoms: N_6  and  S_33
REMARK    8  A    between atoms: C_7  and  C_8
REMARK    9  A    between atoms: C_8  and  O_9
REMARK   10  A    between atoms: C_8  and  C_10
REMARK   11  A    between atoms: C_24  and  C_25
REMARK   12  A    between atoms: C_25  and  C_26
REMARK   13  A    between atoms: C_25  and  C_27
REMARK   14  A    between atoms: S_33  and  C_36
REMARK                            x       y       z     vdW  Elec       q    Type
REMARK                         _______ _______ _______ _____ _____    ______ ____
ROOT
ATOM      1  C   UNL     1       0.669  -0.628  -1.458  0.00  0.00    +0.054 C 
ATOM      2  C   UNL     1       0.541  -2.144  -1.182  0.00  0.00    -0.007 C 
ATOM      3  C   UNL     1       1.894  -2.753  -0.911  0.00  0.00    -0.045 A 
ATOM      4  C   UNL     1       2.289  -3.040   0.405  0.00  0.00    -0.055 A 
ATOM      5  C   UNL     1       3.596  -3.451   0.675  0.00  0.00    -0.020 A 
ATOM      6  C   UNL     1       4.541  -3.540  -0.365  0.00  0.00    +0.121 A 
ATOM      7  O   UNL     1       5.903  -3.791  -0.131  0.00  0.00    -0.492 OA
ATOM      8  C   UNL     1       6.601  -3.521   1.090  0.00  0.00    +0.090 C 
ATOM      9  C   UNL     1       6.954  -2.029   1.231  0.00  0.00    -0.018 C 
ATOM     10  C   UNL     1       5.718  -1.145   1.447  0.00  0.00    -0.042 C 
ATOM     11  C   UNL     1       6.088   0.298   1.793  0.00  0.00    +0.024 C 
ATOM     12  C   UNL     1       4.832   1.109   1.918  0.00  0.00    +0.214 C 
ATOM     13  O   UNL     1       4.285   1.237   3.046  0.00  0.00    -0.276 OA
ATOM     14  N   UNL     1       4.213   1.654   0.744  0.00  0.00    -0.304 N 
ATOM     15  C   UNL     1       2.772   1.915   0.658  0.00  0.00    +0.102 C 
ATOM     16  C   UNL     1       2.222   1.164  -0.530  0.00  0.00    +0.234 C 
ATOM     17  O   UNL     1       2.564   1.509  -1.695  0.00  0.00    -0.274 OA
ATOM     18  N   UNL     1       1.337   0.050  -0.339  0.00  0.00    -0.308 N 
ATOM     19  C   UNL     1       4.122  -3.334  -1.684  0.00  0.00    -0.020 A 
ATOM     20  C   UNL     1       2.811  -2.935  -1.958  0.00  0.00    -0.055 A 
ATOM     21  H   UNL     1       1.297  -0.534  -2.372  0.00  0.00    +0.053 HD
ATOM     22  H   UNL     1       0.090  -2.646  -2.066  0.00  0.00    +0.033 HD
ATOM     23  H   UNL     1      -0.136  -2.330  -0.322  0.00  0.00    +0.033 HD
ATOM     24  H   UNL     1       1.595  -2.913   1.226  0.00  0.00    +0.062 HD
ATOM     25  H   UNL     1       3.868  -3.651   1.701  0.00  0.00    +0.065 HD
ATOM     26  H   UNL     1       6.044  -3.891   1.974  0.00  0.00    +0.070 HD
ATOM     27  H   UNL     1       7.554  -4.089   1.062  0.00  0.00    +0.070 HD
ATOM     28  H   UNL     1       7.636  -1.916   2.102  0.00  0.00    +0.030 HD
ATOM     29  H   UNL     1       7.498  -1.692   0.322  0.00  0.00    +0.030 HD
ATOM     30  H   UNL     1       5.103  -1.564   2.273  0.00  0.00    +0.027 HD
ATOM     31  H   UNL     1       5.115  -1.128   0.514  0.00  0.00    +0.027 HD
ATOM     32  H   UNL     1       6.732   0.728   0.996  0.00  0.00    +0.036 HD
ATOM     33  H   UNL     1       6.651   0.327   2.752  0.00  0.00    +0.036 HD
ATOM     34  H   UNL     1       4.801   1.796  -0.109  0.00  0.00    +0.149 HD
ATOM     35  H   UNL     1       2.266   1.542   1.576  0.00  0.00    +0.060 HD
ATOM     36  H   UNL     1       1.081  -0.226   0.636  0.00  0.00    +0.149 HD
ATOM     37  H   UNL     1       4.833  -3.422  -2.496  0.00  0.00    +0.065 HD
ATOM     38  H   UNL     1       2.523  -2.723  -2.980  0.00  0.00    +0.062 HD
ENDROOT
BRANCH  15  39
ATOM     39  C   UNL     1       2.498   3.439   0.545  0.00  0.00    -0.020 C 
ATOM     40  H   UNL     1       2.978   3.828  -0.380  0.00  0.00    +0.032 HD
BRANCH  39  41
ATOM     41  C   UNL     1       0.989   3.730   0.461  0.00  0.00    -0.061 C 
ATOM     42  H   UNL     1       0.809   4.825   0.409  0.00  0.00    +0.023 HD
ATOM     43  H   UNL     1       0.461   3.323   1.350  0.00  0.00    +0.023 HD
ATOM     44  H   UNL     1       0.551   3.277  -0.453  0.00  0.00    +0.023 HD
ENDBRANCH  39  41
BRANCH  39  45
ATOM     45  C   UNL     1       3.098   4.199   1.739  0.00  0.00    -0.061 C 
ATOM     46  H   UNL     1       2.877   5.284   1.655  0.00  0.00    +0.023 HD
ATOM     47  H   UNL     1       4.202   4.083   1.760  0.00  0.00    +0.023 HD
ATOM     48  H   UNL     1       2.676   3.821   2.695  0.00  0.00    +0.023 HD
ENDBRANCH  39  45
ENDBRANCH  15  39
BRANCH   1  49
ATOM     49  C   UNL     1      -0.699   0.035  -1.770  0.00  0.00    +0.088 C 
ATOM     50  H   UNL     1      -1.254  -0.620  -2.481  0.00  0.00    +0.063 HD
BRANCH  49  51
ATOM     51  C   UNL     1      -1.576   0.236  -0.520  0.00  0.00    +0.048 C 
ATOM     52  H   UNL     1      -1.056   0.946   0.160  0.00  0.00    +0.047 HD
ATOM     53  H   UNL     1      -1.674  -0.718   0.034  0.00  0.00    +0.047 HD
BRANCH  51  54
ATOM     54  N   UNL     1      -2.896   0.765  -0.920  0.00  0.00    -0.174 NA
BRANCH  54  55
ATOM     55  S   UNL     1      -3.419   2.083   0.107  0.00  0.00    +0.061 S 
ATOM     56  O   UNL     1      -2.479   3.244  -0.061  0.00  0.00    -0.153 OA
ATOM     57  O   UNL     1      -3.392   1.651   1.548  0.00  0.00    -0.153 OA
BRANCH  55  58
ATOM     58  C   UNL     1      -5.038   2.613  -0.345  0.00  0.00    +0.105 A 
ATOM     59  C   UNL     1      -5.285   3.037  -1.659  0.00  0.00    -0.035 A 
ATOM     60  C   UNL     1      -6.566   3.450  -2.035  0.00  0.00    -0.060 A 
ATOM     61  C   UNL     1      -7.606   3.443  -1.101  0.00  0.00    -0.062 A 
ATOM     62  C   UNL     1      -7.364   3.025   0.211  0.00  0.00    -0.060 A 
ATOM     63  C   UNL     1      -6.083   2.612   0.591  0.00  0.00    -0.035 A 
ATOM     64  H   UNL     1      -4.486   3.041  -2.390  0.00  0.00    +0.064 HD
ATOM     65  H   UNL     1      -6.754   3.774  -3.050  0.00  0.00    +0.062 HD
ATOM     66  H   UNL     1      -8.598   3.763  -1.393  0.00  0.00    +0.062 HD
ATOM     67  H   UNL     1      -8.170   3.021   0.934  0.00  0.00    +0.062 HD
ATOM     68  H   UNL     1      -5.912   2.289   1.609  0.00  0.00    +0.064 HD
ENDBRANCH  55  58
ENDBRANCH  54  55
BRANCH  54  69
ATOM     69  C   UNL     1      -3.922  -0.286  -1.107  0.00  0.00    +0.021 C 
ATOM     70  H   UNL     1      -4.769   0.137  -1.688  0.00  0.00    +0.044 HD
ATOM     71  H   UNL     1      -3.498  -1.087  -1.745  0.00  0.00    +0.044 HD
BRANCH  69  72
ATOM     72  C   UNL     1      -4.475  -0.882   0.210  0.00  0.00    -0.036 C 
ATOM     73  H   UNL     1      -5.165  -0.135   0.656  0.00  0.00    +0.028 HD
ATOM     74  H   UNL     1      -3.668  -1.058   0.951  0.00  0.00    +0.028 HD
BRANCH  72  75
ATOM     75  C   UNL     1      -5.255  -2.196  -0.021  0.00  0.00    -0.046 C 
ATOM     76  H   UNL     1      -5.891  -2.089  -0.928  0.00  0.00    +0.030 HD
BRANCH  75  77
ATOM     77  C   UNL     1      -4.305  -3.388  -0.227  0.00  0.00    -0.063 C 
ATOM     78  H   UNL     1      -3.676  -3.247  -1.129  0.00  0.00    +0.023 HD
ATOM     79  H   UNL     1      -4.890  -4.321  -0.372  0.00  0.00    +0.023 HD
ATOM     80  H   UNL     1      -3.642  -3.518   0.654  0.00  0.00    +0.023 HD
ENDBRANCH  75  77
BRANCH  75  81
ATOM     81  C   UNL     1      -6.186  -2.479   1.166  0.00  0.00    -0.063 C 
ATOM     82  H   UNL     1      -5.602  -2.577   2.107  0.00  0.00    +0.023 HD
ATOM     83  H   UNL     1      -6.754  -3.418   0.996  0.00  0.00    +0.023 HD
ATOM     84  H   UNL     1      -6.920  -1.654   1.284  0.00  0.00    +0.023 HD
ENDBRANCH  75  81
ENDBRANCH  72  75
ENDBRANCH  69  72
ENDBRANCH  54  69
ENDBRANCH  51  54
ENDBRANCH  49  51
BRANCH  49  85
ATOM     85  O   UNL     1      -0.489   1.288  -2.371  0.00  0.00    -0.389 OA
ATOM     86  H   UNL     1      -0.229   1.117  -3.314  0.00  0.00    +0.210 HD
ENDBRANCH  49  85
ENDBRANCH   1  49
TORSDOF 14
