REMARK  Name = 
REMARK  18 active torsions:
REMARK  status: ('A' for Active; 'I' for Inactive)
REMARK    1  A    between atoms: C_1  and  C_2
REMARK    2  A    between atoms: N_4  and  C_5
REMARK    3  A    between atoms: C_5  and  C_6
REMARK    4  A    between atoms: C_5  and  C_10
REMARK    5  A    between atoms: C_6  and  C_7
REMARK    6  A    between atoms: N_12  and  C_13
REMARK    7  A    between atoms: C_13  and  C_14
REMARK    8  A    between atoms: C_13  and  C_22
REMARK    9  A    between atoms: C_14  and  S_15
REMARK   10  A    between atoms: S_15  and  C_16
REMARK   11  A    between atoms: C_22  and  O_23
REMARK   12  A    between atoms: C_22  and  C_24
REMARK   13  A    between atoms: C_24  and  C_25
REMARK   14  A    between atoms: C_30  and  C_31
REMARK   15  A    between atoms: N_33  and  C_34
REMARK   16  A    between atoms: C_34  and  C_35
REMARK   17  A    between atoms: C_34  and  C_36
REMARK   18  A    between atoms: C_34  and  C_37
REMARK                            x       y       z     vdW  Elec       q    Type
REMARK                         _______ _______ _______ _____ _____    ______ ____
ROOT
ATOM      1  C   UNL     1      -0.601  -1.297  -1.361  0.00  0.00    +0.059 C 
ATOM      2  H   UNL     1      -0.607  -1.928  -2.281  0.00  0.00    +0.053 HD
ENDROOT
BRANCH   1   5
ATOM      3  C   UNL     1      -2.561  -0.801   0.286  0.00  0.00    +0.234 C 
ATOM      4  O   UNL     1      -2.092   0.308   0.648  0.00  0.00    -0.274 OA
ATOM      5  N   UNL     1      -1.877  -1.606  -0.691  0.00  0.00    -0.308 N 
ATOM      6  H   UNL     1      -2.350  -2.490  -0.987  0.00  0.00    +0.149 HD
BRANCH   3   7
ATOM      7  C   UNL     1      -3.883  -1.274   0.843  0.00  0.00    +0.108 C 
ATOM      8  H   UNL     1      -3.847  -2.386   0.868  0.00  0.00    +0.060 HD
BRANCH   7  11
ATOM      9  C   UNL     1      -4.860  -1.511   3.180  0.00  0.00    +0.211 C 
ATOM     10  O   UNL     1      -5.335  -2.645   2.900  0.00  0.00    -0.276 OA
ATOM     11  N   UNL     1      -4.094  -0.781   2.211  0.00  0.00    -0.304 N 
ATOM     12  H   UNL     1      -3.808   0.194   2.454  0.00  0.00    +0.149 HD
BRANCH   9  13
ATOM     13  C   UNL     1      -5.129  -0.909   4.521  0.00  0.00    +0.012 C 
ATOM     14  H   UNL     1      -4.183  -0.523   4.955  0.00  0.00    +0.032 HD
ATOM     15  H   UNL     1      -5.555  -1.669   5.211  0.00  0.00    +0.032 HD
ATOM     16  H   UNL     1      -5.850  -0.073   4.412  0.00  0.00    +0.032 HD
ENDBRANCH   9  13
ENDBRANCH   7  11
BRANCH   7  17
ATOM     17  C   UNL     1      -5.054  -0.865  -0.069  0.00  0.00    +0.051 C 
ATOM     18  H   UNL     1      -5.993  -1.313   0.322  0.00  0.00    +0.038 HD
ATOM     19  H   UNL     1      -4.896  -1.285  -1.086  0.00  0.00    +0.038 HD
BRANCH  17  20
ATOM     20  C   UNL     1      -5.225   0.625  -0.161  0.00  0.00    +0.213 C 
ATOM     21  N   UNL     1      -4.603   1.362  -1.214  0.00  0.00    -0.329 N 
ATOM     22  O   UNL     1      -5.904   1.233   0.710  0.00  0.00    -0.276 OA
ATOM     23  H   UNL     1      -4.724   2.398  -1.274  0.00  0.00    +0.145 HD
ATOM     24  H   UNL     1      -4.024   0.878  -1.935  0.00  0.00    +0.145 HD
ENDBRANCH  17  20
ENDBRANCH   7  17
ENDBRANCH   3   7
ENDBRANCH   1   5
BRANCH   1  25
ATOM     25  C   UNL     1      -0.532   0.132  -1.963  0.00  0.00    +0.019 C 
ATOM     26  H   UNL     1       0.133   0.109  -2.854  0.00  0.00    +0.040 HD
ATOM     27  H   UNL     1      -1.545   0.417  -2.320  0.00  0.00    +0.040 HD
BRANCH  25  28
ATOM     28  S   UNL     1       0.114   1.438  -0.859  0.00  0.00    -0.123 S 
BRANCH  28  29
ATOM     29  C   UNL     1      -0.275   2.774  -1.988  0.00  0.00    +0.008 A 
ATOM     30  C   UNL     1       0.663   3.188  -2.942  0.00  0.00    -0.048 A 
ATOM     31  C   UNL     1       0.355   4.233  -3.819  0.00  0.00    -0.061 A 
ATOM     32  C   UNL     1      -0.889   4.867  -3.742  0.00  0.00    -0.062 A 
ATOM     33  C   UNL     1      -1.825   4.460  -2.785  0.00  0.00    -0.061 A 
ATOM     34  C   UNL     1      -1.517   3.416  -1.907  0.00  0.00    -0.048 A 
ATOM     35  H   UNL     1       1.628   2.703  -3.006  0.00  0.00    +0.063 HD
ATOM     36  H   UNL     1       1.079   4.550  -4.558  0.00  0.00    +0.062 HD
ATOM     37  H   UNL     1      -1.127   5.675  -4.422  0.00  0.00    +0.062 HD
ATOM     38  H   UNL     1      -2.786   4.953  -2.724  0.00  0.00    +0.062 HD
ATOM     39  H   UNL     1      -2.241   3.108  -1.165  0.00  0.00    +0.063 HD
ENDBRANCH  28  29
ENDBRANCH  25  28
ENDBRANCH   1  25
BRANCH   1  40
ATOM     40  C   UNL     1       0.643  -1.818  -0.577  0.00  0.00    +0.078 C 
ATOM     41  H   UNL     1       1.551  -1.464  -1.117  0.00  0.00    +0.062 HD
BRANCH  40  42
ATOM     42  C   UNL     1       0.752  -1.335   0.890  0.00  0.00    +0.001 C 
ATOM     43  H   UNL     1       1.045  -0.274   0.940  0.00  0.00    +0.034 HD
ATOM     44  H   UNL     1      -0.240  -1.400   1.375  0.00  0.00    +0.034 HD
BRANCH  42  45
ATOM     45  C   UNL     1       1.748  -2.147   1.702  0.00  0.00    -0.033 A 
ATOM     46  C   UNL     1       1.249  -2.998   2.708  0.00  0.00    -0.058 A 
ATOM     47  C   UNL     1       2.107  -3.811   3.450  0.00  0.00    -0.061 A 
ATOM     48  C   UNL     1       3.475  -3.798   3.195  0.00  0.00    -0.061 A 
ATOM     49  C   UNL     1       3.993  -2.969   2.200  0.00  0.00    -0.049 A 
ATOM     50  C   UNL     1       3.148  -2.129   1.454  0.00  0.00    +0.040 A 
ATOM     51  H   UNL     1       0.187  -3.044   2.916  0.00  0.00    +0.062 HD
ATOM     52  H   UNL     1       1.707  -4.459   4.219  0.00  0.00    +0.062 HD
ATOM     53  H   UNL     1       4.138  -4.434   3.767  0.00  0.00    +0.062 HD
ATOM     54  H   UNL     1       5.060  -2.975   2.016  0.00  0.00    +0.063 HD
BRANCH  50  55
ATOM     55  C   UNL     1       3.769  -1.296   0.405  0.00  0.00    +0.245 C 
ATOM     56  O   UNL     1       4.460  -1.863  -0.483  0.00  0.00    -0.270 OA
ATOM     57  N   UNL     1       3.649   0.138   0.437  0.00  0.00    -0.307 N 
ATOM     58  H   UNL     1       3.146   0.550   1.256  0.00  0.00    +0.150 HD
BRANCH  57  59
ATOM     59  C   UNL     1       4.271   1.056  -0.538  0.00  0.00    +0.026 C 
BRANCH  59  60
ATOM     60  C   UNL     1       3.796   0.730  -1.969  0.00  0.00    -0.044 C 
ATOM     61  H   UNL     1       4.132   1.513  -2.682  0.00  0.00    +0.025 HD
ATOM     62  H   UNL     1       2.689   0.673  -2.004  0.00  0.00    +0.025 HD
ATOM     63  H   UNL     1       4.203  -0.237  -2.325  0.00  0.00    +0.025 HD
ENDBRANCH  59  60
BRANCH  59  64
ATOM     64  C   UNL     1       5.807   0.956  -0.453  0.00  0.00    -0.044 C 
ATOM     65  H   UNL     1       6.166  -0.046  -0.764  0.00  0.00    +0.025 HD
ATOM     66  H   UNL     1       6.285   1.706  -1.118  0.00  0.00    +0.025 HD
ATOM     67  H   UNL     1       6.147   1.139   0.589  0.00  0.00    +0.025 HD
ENDBRANCH  59  64
BRANCH  59  68
ATOM     68  C   UNL     1       3.858   2.504  -0.201  0.00  0.00    -0.044 C 
ATOM     69  H   UNL     1       2.755   2.615  -0.245  0.00  0.00    +0.025 HD
ATOM     70  H   UNL     1       4.193   2.776   0.824  0.00  0.00    +0.025 HD
ATOM     71  H   UNL     1       4.309   3.224  -0.917  0.00  0.00    +0.025 HD
ENDBRANCH  59  68
ENDBRANCH  57  59
ENDBRANCH  50  55
ENDBRANCH  42  45
ENDBRANCH  40  42
BRANCH  40  72
ATOM     72  O   UNL     1       0.618  -3.225  -0.586  0.00  0.00    -0.390 OA
ATOM     73  H   UNL     1       1.003  -3.521  -1.452  0.00  0.00    +0.210 HD
ENDBRANCH  40  72
ENDBRANCH   1  40
TORSDOF 18
