REMARK  Name = 
REMARK  18 active torsions:
REMARK  status: ('A' for Active; 'I' for Inactive)
REMARK    1  A    between atoms: C_1  and  C_2
REMARK    2  A    between atoms: N_4  and  C_5
REMARK    3  A    between atoms: C_5  and  C_6
REMARK    4  A    between atoms: C_5  and  C_10
REMARK    5  A    between atoms: C_6  and  C_7
REMARK    6  A    between atoms: N_12  and  C_13
REMARK    7  A    between atoms: C_13  and  C_14
REMARK    8  A    between atoms: C_13  and  C_22
REMARK    9  A    between atoms: C_14  and  S_15
REMARK   10  A    between atoms: S_15  and  C_16
REMARK   11  A    between atoms: C_22  and  O_23
REMARK   12  A    between atoms: C_22  and  C_24
REMARK   13  A    between atoms: C_24  and  C_25
REMARK   14  A    between atoms: C_30  and  C_31
REMARK   15  A    between atoms: N_33  and  C_34
REMARK   16  A    between atoms: C_34  and  C_35
REMARK   17  A    between atoms: C_34  and  C_36
REMARK   18  A    between atoms: C_34  and  C_37
REMARK                            x       y       z     vdW  Elec       q    Type
REMARK                         _______ _______ _______ _____ _____    ______ ____
ROOT
ATOM      1  C   UNL     1      -1.320   0.313  -0.764  0.00  0.00    +0.059 C 
ATOM      2  H   UNL     1      -1.183   1.165  -1.465  0.00  0.00    +0.053 HD
ENDROOT
BRANCH   1   5
ATOM      3  C   UNL     1      -3.265  -1.320  -0.302  0.00  0.00    +0.234 C 
ATOM      4  O   UNL     1      -2.611  -1.960   0.564  0.00  0.00    -0.274 OA
ATOM      5  N   UNL     1      -2.674  -0.209  -0.997  0.00  0.00    -0.308 N 
ATOM      6  H   UNL     1      -3.258   0.283  -1.711  0.00  0.00    +0.149 HD
BRANCH   3   7
ATOM      7  C   UNL     1      -4.704  -1.687  -0.571  0.00  0.00    +0.108 C 
ATOM      8  H   UNL     1      -4.915  -1.505  -1.648  0.00  0.00    +0.060 HD
BRANCH   7  11
ATOM      9  C   UNL     1      -4.369  -4.147  -1.105  0.00  0.00    +0.211 C 
ATOM     10  O   UNL     1      -3.644  -3.858  -2.095  0.00  0.00    -0.276 OA
ATOM     11  N   UNL     1      -4.943  -3.110  -0.297  0.00  0.00    -0.304 N 
ATOM     12  H   UNL     1      -5.575  -3.393   0.485  0.00  0.00    +0.149 HD
BRANCH   9  13
ATOM     13  C   UNL     1      -4.650  -5.579  -0.787  0.00  0.00    +0.012 C 
ATOM     14  H   UNL     1      -4.021  -6.249  -1.412  0.00  0.00    +0.032 HD
ATOM     15  H   UNL     1      -4.427  -5.775   0.282  0.00  0.00    +0.032 HD
ATOM     16  H   UNL     1      -5.720  -5.799  -0.984  0.00  0.00    +0.032 HD
ENDBRANCH   9  13
ENDBRANCH   7  11
BRANCH   7  17
ATOM     17  C   UNL     1      -5.665  -0.785   0.232  0.00  0.00    +0.051 C 
ATOM     18  H   UNL     1      -6.713  -1.057  -0.019  0.00  0.00    +0.038 HD
ATOM     19  H   UNL     1      -5.525   0.272  -0.086  0.00  0.00    +0.038 HD
BRANCH  17  20
ATOM     20  C   UNL     1      -5.464  -0.873   1.721  0.00  0.00    +0.213 C 
ATOM     21  N   UNL     1      -6.308  -1.700   2.522  0.00  0.00    -0.329 N 
ATOM     22  O   UNL     1      -4.540  -0.213   2.268  0.00  0.00    -0.276 OA
ATOM     23  H   UNL     1      -6.154  -1.768   3.552  0.00  0.00    +0.145 HD
ATOM     24  H   UNL     1      -7.094  -2.238   2.093  0.00  0.00    +0.145 HD
ENDBRANCH  17  20
ENDBRANCH   7  17
ENDBRANCH   3   7
ENDBRANCH   1   5
BRANCH   1  25
ATOM     25  C   UNL     1      -1.179   0.874   0.668  0.00  0.00    +0.019 C 
ATOM     26  H   UNL     1      -1.486   0.116   1.416  0.00  0.00    +0.040 HD
ATOM     27  H   UNL     1      -0.120   1.123   0.890  0.00  0.00    +0.040 HD
BRANCH  25  28
ATOM     28  S   UNL     1      -2.227   2.354   0.907  0.00  0.00    -0.123 S 
BRANCH  28  29
ATOM     29  C   UNL     1      -0.984   3.516   0.333  0.00  0.00    +0.008 A 
ATOM     30  C   UNL     1      -0.975   3.938  -1.003  0.00  0.00    -0.048 A 
ATOM     31  C   UNL     1       0.006   4.829  -1.450  0.00  0.00    -0.061 A 
ATOM     32  C   UNL     1       0.974   5.308  -0.561  0.00  0.00    -0.062 A 
ATOM     33  C   UNL     1       0.958   4.900   0.776  0.00  0.00    -0.061 A 
ATOM     34  C   UNL     1      -0.020   4.007   1.224  0.00  0.00    -0.048 A 
ATOM     35  H   UNL     1      -1.723   3.575  -1.696  0.00  0.00    +0.063 HD
ATOM     36  H   UNL     1       0.016   5.149  -2.484  0.00  0.00    +0.062 HD
ATOM     37  H   UNL     1       1.733   5.997  -0.908  0.00  0.00    +0.062 HD
ATOM     38  H   UNL     1       1.706   5.272   1.464  0.00  0.00    +0.062 HD
ATOM     39  H   UNL     1      -0.022   3.688   2.258  0.00  0.00    +0.063 HD
ENDBRANCH  28  29
ENDBRANCH  25  28
ENDBRANCH   1  25
BRANCH   1  40
ATOM     40  C   UNL     1      -0.237  -0.743  -1.119  0.00  0.00    +0.078 C 
ATOM     41  H   UNL     1      -0.619  -1.351  -1.975  0.00  0.00    +0.062 HD
BRANCH  40  42
ATOM     42  C   UNL     1       1.066  -0.054  -1.584  0.00  0.00    +0.001 C 
ATOM     43  H   UNL     1       1.347   0.765  -0.891  0.00  0.00    +0.034 HD
ATOM     44  H   UNL     1       0.877   0.444  -2.561  0.00  0.00    +0.034 HD
BRANCH  42  45
ATOM     45  C   UNL     1       2.208  -1.033  -1.756  0.00  0.00    -0.033 A 
ATOM     46  C   UNL     1       2.224  -1.849  -2.901  0.00  0.00    -0.058 A 
ATOM     47  C   UNL     1       3.277  -2.737  -3.127  0.00  0.00    -0.061 A 
ATOM     48  C   UNL     1       4.328  -2.822  -2.215  0.00  0.00    -0.061 A 
ATOM     49  C   UNL     1       4.326  -2.026  -1.068  0.00  0.00    -0.049 A 
ATOM     50  C   UNL     1       3.267  -1.138  -0.817  0.00  0.00    +0.040 A 
ATOM     51  H   UNL     1       1.422  -1.788  -3.627  0.00  0.00    +0.062 HD
ATOM     52  H   UNL     1       3.280  -3.357  -4.014  0.00  0.00    +0.062 HD
ATOM     53  H   UNL     1       5.145  -3.509  -2.395  0.00  0.00    +0.062 HD
ATOM     54  H   UNL     1       5.145  -2.117  -0.364  0.00  0.00    +0.063 HD
BRANCH  50  55
ATOM     55  C   UNL     1       3.298  -0.337   0.424  0.00  0.00    +0.245 C 
ATOM     56  O   UNL     1       2.309  -0.370   1.204  0.00  0.00    -0.270 OA
ATOM     57  N   UNL     1       4.450   0.469   0.733  0.00  0.00    -0.307 N 
ATOM     58  H   UNL     1       5.260   0.403   0.075  0.00  0.00    +0.150 HD
BRANCH  57  59
ATOM     59  C   UNL     1       4.523   1.441   1.842  0.00  0.00    +0.026 C 
BRANCH  59  60
ATOM     60  C   UNL     1       4.413   0.713   3.196  0.00  0.00    -0.044 C 
ATOM     61  H   UNL     1       5.176  -0.093   3.262  0.00  0.00    +0.025 HD
ATOM     62  H   UNL     1       4.578   1.423   4.036  0.00  0.00    +0.025 HD
ATOM     63  H   UNL     1       3.412   0.259   3.336  0.00  0.00    +0.025 HD
ENDBRANCH  59  60
BRANCH  59  64
ATOM     64  C   UNL     1       5.883   2.167   1.785  0.00  0.00    -0.044 C 
ATOM     65  H   UNL     1       5.996   2.703   0.818  0.00  0.00    +0.025 HD
ATOM     66  H   UNL     1       5.974   2.908   2.608  0.00  0.00    +0.025 HD
ATOM     67  H   UNL     1       6.716   1.437   1.877  0.00  0.00    +0.025 HD
ENDBRANCH  59  64
BRANCH  59  68
ATOM     68  C   UNL     1       3.402   2.491   1.706  0.00  0.00    -0.044 C 
ATOM     69  H   UNL     1       2.399   2.039   1.843  0.00  0.00    +0.025 HD
ATOM     70  H   UNL     1       3.516   3.288   2.472  0.00  0.00    +0.025 HD
ATOM     71  H   UNL     1       3.437   2.962   0.699  0.00  0.00    +0.025 HD
ENDBRANCH  59  68
ENDBRANCH  57  59
ENDBRANCH  50  55
ENDBRANCH  42  45
ENDBRANCH  40  42
BRANCH  40  72
ATOM     72  O   UNL     1       0.016  -1.576  -0.014  0.00  0.00    -0.390 OA
ATOM     73  H   UNL     1       0.273  -2.466  -0.369  0.00  0.00    +0.210 HD
ENDBRANCH  40  72
ENDBRANCH   1  40
TORSDOF 18
