REMARK  Name = 
REMARK  15 active torsions:
REMARK  status: ('A' for Active; 'I' for Inactive)
REMARK    1  A    between atoms: C_1  and  C_2
REMARK    2  A    between atoms: C_2  and  C_3
REMARK    3  A    between atoms: C_3  and  C_4
REMARK    4  A    between atoms: C_4  and  C_5
REMARK    5  A    between atoms: C_5  and  C_6
REMARK    6  A    between atoms: C_6  and  C_7
REMARK    7  A    between atoms: C_14  and  O_15
REMARK    8  A    between atoms: C_16  and  C_17
REMARK    9  A    between atoms: C_17  and  C_18
REMARK   10  A    between atoms: C_17  and  C_20
REMARK   11  A    between atoms: C_18  and  C_19
REMARK   12  A    between atoms: C_24  and  N_25
REMARK   13  A    between atoms: N_25  and  S_26
REMARK   14  A    between atoms: S_26  and  C_29
REMARK   15  A    between atoms: C_32  and  C_33
REMARK                            x       y       z     vdW  Elec       q    Type
REMARK                         _______ _______ _______ _____ _____    ______ ____
ROOT
ATOM      1  C   UNL     1      -1.852  -0.024  -1.331  0.00  0.00    +0.260 C 
ATOM      2  O   UNL     1      -2.326   0.533  -0.100  0.00  0.00    -0.421 OA
ATOM      3  C   UNL     1      -1.704   1.635   0.502  0.00  0.00    +0.293 C 
ATOM      4  C   UNL     1      -0.961   2.482  -0.239  0.00  0.00    +0.123 C 
ATOM      5  C   UNL     1      -0.902   2.213  -1.696  0.00  0.00    +0.346 C 
ATOM      6  O   UNL     1      -0.378   3.038  -2.491  0.00  0.00    -0.245 OA
ATOM      7  O   UNL     1      -1.456   1.036  -2.202  0.00  0.00    -0.419 OA
ENDROOT
BRANCH   1   8
ATOM      8  C   UNL     1      -0.608  -0.927  -1.067  0.00  0.00    +0.029 C 
ATOM      9  H   UNL     1      -0.471  -1.652  -1.899  0.00  0.00    +0.034 HD
ATOM     10  H   UNL     1       0.300  -0.285  -1.075  0.00  0.00    +0.034 HD
BRANCH   8  11
ATOM     11  C   UNL     1      -0.597  -1.670   0.285  0.00  0.00    -0.021 C 
ATOM     12  H   UNL     1      -0.671  -0.946   1.124  0.00  0.00    +0.032 HD
ATOM     13  H   UNL     1       0.389  -2.164   0.406  0.00  0.00    +0.032 HD
BRANCH  11  14
ATOM     14  C   UNL     1      -1.663  -2.726   0.387  0.00  0.00    -0.047 A 
ATOM     15  C   UNL     1      -1.566  -3.905  -0.370  0.00  0.00    -0.059 A 
ATOM     16  C   UNL     1      -2.567  -4.877  -0.292  0.00  0.00    -0.062 A 
ATOM     17  C   UNL     1      -3.671  -4.680   0.543  0.00  0.00    -0.062 A 
ATOM     18  C   UNL     1      -3.774  -3.511   1.301  0.00  0.00    -0.062 A 
ATOM     19  C   UNL     1      -2.775  -2.536   1.227  0.00  0.00    -0.059 A 
ATOM     20  H   UNL     1      -0.718  -4.067  -1.024  0.00  0.00    +0.062 HD
ATOM     21  H   UNL     1      -2.488  -5.783  -0.879  0.00  0.00    +0.062 HD
ATOM     22  H   UNL     1      -4.446  -5.433   0.601  0.00  0.00    +0.062 HD
ATOM     23  H   UNL     1      -4.630  -3.359   1.946  0.00  0.00    +0.062 HD
ATOM     24  H   UNL     1      -2.872  -1.632   1.815  0.00  0.00    +0.062 HD
ENDBRANCH  11  14
ENDBRANCH   8  11
ENDBRANCH   1   8
BRANCH   1  25
ATOM     25  C   UNL     1      -2.987  -0.818  -2.011  0.00  0.00    +0.025 C 
ATOM     26  H   UNL     1      -3.314  -1.653  -1.361  0.00  0.00    +0.034 HD
ATOM     27  H   UNL     1      -2.611  -1.253  -2.962  0.00  0.00    +0.034 HD
BRANCH  25  28
ATOM     28  C   UNL     1      -4.210   0.062  -2.316  0.00  0.00    -0.049 C 
ATOM     29  H   UNL     1      -4.602   0.504  -1.375  0.00  0.00    +0.027 HD
ATOM     30  H   UNL     1      -3.922   0.889  -3.000  0.00  0.00    +0.027 HD
BRANCH  28  31
ATOM     31  C   UNL     1      -5.321  -0.752  -2.973  0.00  0.00    -0.065 C 
ATOM     32  H   UNL     1      -5.652  -1.570  -2.297  0.00  0.00    +0.023 HD
ATOM     33  H   UNL     1      -4.966  -1.188  -3.931  0.00  0.00    +0.023 HD
ATOM     34  H   UNL     1      -6.190  -0.093  -3.183  0.00  0.00    +0.023 HD
ENDBRANCH  28  31
ENDBRANCH  25  28
ENDBRANCH   1  25
BRANCH   4  35
ATOM     35  C   UNL     1      -0.085   3.579   0.361  0.00  0.00    +0.023 C 
ATOM     36  H   UNL     1       0.237   4.237  -0.476  0.00  0.00    +0.040 HD
BRANCH  35  37
ATOM     37  C   UNL     1       1.172   2.953   0.946  0.00  0.00    -0.038 A 
ATOM     38  C   UNL     1       1.208   2.420   2.248  0.00  0.00    -0.058 A 
ATOM     39  C   UNL     1       2.340   1.741   2.704  0.00  0.00    -0.060 A 
ATOM     40  C   UNL     1       3.443   1.569   1.866  0.00  0.00    -0.039 A 
ATOM     41  C   UNL     1       3.425   2.082   0.559  0.00  0.00    +0.048 A 
ATOM     42  C   UNL     1       2.292   2.777   0.113  0.00  0.00    -0.036 A 
ATOM     43  H   UNL     1       0.366   2.511   2.917  0.00  0.00    +0.062 HD
ATOM     44  H   UNL     1       2.359   1.338   3.708  0.00  0.00    +0.062 HD
ATOM     45  H   UNL     1       4.306   1.041   2.246  0.00  0.00    +0.064 HD
ATOM     46  H   UNL     1       2.272   3.152  -0.904  0.00  0.00    +0.064 HD
BRANCH  41  47
ATOM     47  N   UNL     1       4.538   1.906  -0.331  0.00  0.00    -0.216 N 
ATOM     48  H   UNL     1       4.604   2.504  -1.185  0.00  0.00    +0.174 HD
BRANCH  47  49
ATOM     49  S   UNL     1       5.599   0.537  -0.247  0.00  0.00    +0.072 S 
ATOM     50  O   UNL     1       6.420   0.465  -1.504  0.00  0.00    -0.150 OA
ATOM     51  O   UNL     1       6.526   0.692   0.927  0.00  0.00    -0.150 OA
BRANCH  49  52
ATOM     52  C   UNL     1       4.643  -0.936  -0.113  0.00  0.00    +0.109 A 
ATOM     53  C   UNL     1       3.665  -1.215  -1.077  0.00  0.00    -0.034 A 
ATOM     54  C   UNL     1       2.897  -2.380  -0.984  0.00  0.00    -0.042 A 
ATOM     55  C   UNL     1       3.097  -3.269   0.079  0.00  0.00    +0.052 A 
ATOM     56  C   UNL     1       4.069  -2.989   1.048  0.00  0.00    -0.042 A 
ATOM     57  C   UNL     1       4.841  -1.827   0.952  0.00  0.00    -0.034 A 
ATOM     58  H   UNL     1       3.498  -0.531  -1.899  0.00  0.00    +0.064 HD
ATOM     59  H   UNL     1       2.145  -2.583  -1.736  0.00  0.00    +0.063 HD
ATOM     60  H   UNL     1       4.230  -3.668   1.877  0.00  0.00    +0.063 HD
ATOM     61  H   UNL     1       5.588  -1.623   1.709  0.00  0.00    +0.064 HD
BRANCH  55  62
ATOM     62  C   UNL     1       2.301  -4.465   0.180  0.00  0.00    +0.099 C 
ATOM     63  N   UNL     1       1.661  -5.425   0.261  0.00  0.00    -0.191 NA
ENDBRANCH  55  62
ENDBRANCH  49  52
ENDBRANCH  47  49
ENDBRANCH  41  47
ENDBRANCH  35  37
BRANCH  35  64
ATOM     64  C   UNL     1      -0.840   4.541   1.314  0.00  0.00    -0.045 C 
ATOM     65  H   UNL     1      -1.129   4.058   2.266  0.00  0.00    +0.027 HD
ATOM     66  H   UNL     1      -1.777   4.875   0.817  0.00  0.00    +0.027 HD
BRANCH  64  67
ATOM     67  C   UNL     1      -0.011   5.782   1.648  0.00  0.00    -0.064 C 
ATOM     68  H   UNL     1       0.249   6.337   0.722  0.00  0.00    +0.023 HD
ATOM     69  H   UNL     1       0.922   5.495   2.178  0.00  0.00    +0.023 HD
ATOM     70  H   UNL     1      -0.599   6.454   2.309  0.00  0.00    +0.023 HD
ENDBRANCH  64  67
ENDBRANCH  35  64
ENDBRANCH   4  35
BRANCH   3  71
ATOM     71  O   UNL     1      -1.869   1.815   1.870  0.00  0.00    -0.480 OA
ATOM     72  H   UNL     1      -2.422   1.162   2.413  0.00  0.00    +0.295 HD
ENDBRANCH   3  71
TORSDOF 15
