REMARK  Name = 
REMARK  11 active torsions:
REMARK  status: ('A' for Active; 'I' for Inactive)
REMARK    1  A    between atoms: O_1  and  C_2
REMARK    2  A    between atoms: C_3  and  O_4
REMARK    3  A    between atoms: C_5  and  C_6
REMARK    4  A    between atoms: C_6  and  C_7
REMARK    5  A    between atoms: N_13  and  C_14
REMARK    6  A    between atoms: C_14  and  C_15
REMARK    7  A    between atoms: N_22  and  C_23
REMARK    8  A    between atoms: N_25  and  C_26
REMARK    9  A    between atoms: C_26  and  C_27
REMARK   10  A    between atoms: C_33  and  C_34
REMARK   11  A    between atoms: C_34  and  C_35
REMARK                            x       y       z     vdW  Elec       q    Type
REMARK                         _______ _______ _______ _____ _____    ______ ____
ROOT
ATOM      1  C   UNL     1      -0.047   2.420   1.280  0.00  0.00    +0.102 C 
ATOM      2  C   UNL     1       0.468   1.161   2.014  0.00  0.00    +0.102 C 
ATOM      3  C   UNL     1       1.574   0.326   1.289  0.00  0.00    +0.058 C 
ATOM      4  N   UNL     1       1.186  -0.177  -0.066  0.00  0.00    -0.296 N 
ATOM      5  C   UNL     1       0.373   0.610  -0.964  0.00  0.00    +0.197 C 
ATOM      6  N   UNL     1       0.829   0.881  -2.152  0.00  0.00    -0.142 NA
ATOM      7  N   UNL     1      -0.967   0.978  -0.587  0.00  0.00    -0.296 N 
ATOM      8  C   UNL     1      -1.216   2.137   0.293  0.00  0.00    +0.058 C 
ATOM      9  H   UNL     1      -0.493   3.064   2.072  0.00  0.00    +0.064 HD
ATOM     10  H   UNL     1       0.942   1.558   2.941  0.00  0.00    +0.064 HD
ATOM     11  H   UNL     1       2.451   0.995   1.148  0.00  0.00    +0.053 HD
ATOM     12  H   UNL     1      -2.084   1.883   0.943  0.00  0.00    +0.053 HD
ENDROOT
BRANCH   4  13
ATOM     13  C   UNL     1       1.833  -1.376  -0.650  0.00  0.00    +0.018 C 
ATOM     14  H   UNL     1       1.619  -2.241   0.012  0.00  0.00    +0.047 HD
ATOM     15  H   UNL     1       1.348  -1.654  -1.609  0.00  0.00    +0.047 HD
BRANCH  13  16
ATOM     16  C   UNL     1       3.373  -1.210  -0.865  0.00  0.00    -0.025 C 
ATOM     17  C   UNL     1       4.092  -2.592  -0.940  0.00  0.00    -0.049 C 
ATOM     18  C   UNL     1       4.511  -3.014  -2.363  0.00  0.00    -0.053 C 
ATOM     19  C   UNL     1       3.500  -2.545  -3.411  0.00  0.00    -0.053 C 
ATOM     20  C   UNL     1       3.360  -1.010  -3.430  0.00  0.00    -0.053 C 
ATOM     21  C   UNL     1       3.734  -0.344  -2.090  0.00  0.00    -0.049 C 
ATOM     22  H   UNL     1       3.798  -0.675   0.009  0.00  0.00    +0.032 HD
ATOM     23  H   UNL     1       5.011  -2.554  -0.314  0.00  0.00    +0.027 HD
ATOM     24  H   UNL     1       3.462  -3.395  -0.502  0.00  0.00    +0.027 HD
ATOM     25  H   UNL     1       5.508  -2.582  -2.602  0.00  0.00    +0.027 HD
ATOM     26  H   UNL     1       4.606  -4.120  -2.408  0.00  0.00    +0.027 HD
ATOM     27  H   UNL     1       2.514  -3.011  -3.196  0.00  0.00    +0.027 HD
ATOM     28  H   UNL     1       3.818  -2.899  -4.415  0.00  0.00    +0.027 HD
ATOM     29  H   UNL     1       2.317  -0.748  -3.705  0.00  0.00    +0.027 HD
ATOM     30  H   UNL     1       4.017  -0.591  -4.224  0.00  0.00    +0.027 HD
ATOM     31  H   UNL     1       3.285   0.665  -2.011  0.00  0.00    +0.027 HD
ATOM     32  H   UNL     1       4.834  -0.177  -2.080  0.00  0.00    +0.027 HD
ENDBRANCH  13  16
ENDBRANCH   4  13
BRANCH   3  33
ATOM     33  C   UNL     1       2.021  -0.835   2.241  0.00  0.00    -0.006 C 
ATOM     34  H   UNL     1       2.807  -1.467   1.791  0.00  0.00    +0.033 HD
ATOM     35  H   UNL     1       1.162  -1.516   2.426  0.00  0.00    +0.033 HD
BRANCH  33  36
ATOM     36  C   UNL     1       2.592  -0.339   3.547  0.00  0.00    -0.046 A 
ATOM     37  C   UNL     1       1.854  -0.449   4.738  0.00  0.00    -0.059 A 
ATOM     38  C   UNL     1       2.383   0.029   5.941  0.00  0.00    -0.062 A 
ATOM     39  C   UNL     1       3.650   0.620   5.963  0.00  0.00    -0.062 A 
ATOM     40  C   UNL     1       4.389   0.734   4.783  0.00  0.00    -0.062 A 
ATOM     41  C   UNL     1       3.864   0.257   3.578  0.00  0.00    -0.059 A 
ATOM     42  H   UNL     1       0.869  -0.898   4.735  0.00  0.00    +0.062 HD
ATOM     43  H   UNL     1       1.810  -0.056   6.855  0.00  0.00    +0.062 HD
ATOM     44  H   UNL     1       4.057   0.991   6.895  0.00  0.00    +0.062 HD
ATOM     45  H   UNL     1       5.370   1.192   4.801  0.00  0.00    +0.062 HD
ATOM     46  H   UNL     1       4.446   0.352   2.670  0.00  0.00    +0.062 HD
ENDBRANCH  33  36
ENDBRANCH   3  33
BRANCH   7  47
ATOM     47  C   UNL     1      -2.112   0.289  -1.215  0.00  0.00    +0.018 C 
ATOM     48  H   UNL     1      -2.139   0.544  -2.294  0.00  0.00    +0.047 HD
ATOM     49  H   UNL     1      -3.070   0.648  -0.780  0.00  0.00    +0.047 HD
BRANCH  47  50
ATOM     50  C   UNL     1      -2.048  -1.248  -1.061  0.00  0.00    -0.025 C 
ATOM     51  C   UNL     1      -3.217  -1.921  -1.832  0.00  0.00    -0.049 C 
ATOM     52  C   UNL     1      -4.429  -2.171  -0.928  0.00  0.00    -0.053 C 
ATOM     53  C   UNL     1      -4.084  -3.118   0.239  0.00  0.00    -0.053 C 
ATOM     54  C   UNL     1      -2.602  -3.059   0.656  0.00  0.00    -0.053 C 
ATOM     55  C   UNL     1      -2.010  -1.664   0.433  0.00  0.00    -0.049 C 
ATOM     56  H   UNL     1      -1.110  -1.601  -1.542  0.00  0.00    +0.032 HD
ATOM     57  H   UNL     1      -2.874  -2.899  -2.237  0.00  0.00    +0.027 HD
ATOM     58  H   UNL     1      -3.528  -1.310  -2.707  0.00  0.00    +0.027 HD
ATOM     59  H   UNL     1      -5.257  -2.608  -1.528  0.00  0.00    +0.027 HD
ATOM     60  H   UNL     1      -4.787  -1.198  -0.525  0.00  0.00    +0.027 HD
ATOM     61  H   UNL     1      -4.330  -4.163  -0.048  0.00  0.00    +0.027 HD
ATOM     62  H   UNL     1      -4.723  -2.855   1.110  0.00  0.00    +0.027 HD
ATOM     63  H   UNL     1      -2.506  -3.338   1.727  0.00  0.00    +0.027 HD
ATOM     64  H   UNL     1      -2.018  -3.798   0.063  0.00  0.00    +0.027 HD
ATOM     65  H   UNL     1      -2.582  -0.940   1.055  0.00  0.00    +0.027 HD
ATOM     66  H   UNL     1      -0.959  -1.666   0.788  0.00  0.00    +0.027 HD
ENDBRANCH  47  50
ENDBRANCH   7  47
BRANCH   8  67
ATOM     67  C   UNL     1      -1.587   3.406  -0.516  0.00  0.00    -0.006 C 
ATOM     68  H   UNL     1      -1.412   4.313   0.103  0.00  0.00    +0.033 HD
ATOM     69  H   UNL     1      -0.923   3.502  -1.400  0.00  0.00    +0.033 HD
BRANCH  67  70
ATOM     70  C   UNL     1      -3.041   3.421  -0.927  0.00  0.00    -0.046 A 
ATOM     71  C   UNL     1      -4.043   3.604   0.042  0.00  0.00    -0.059 A 
ATOM     72  C   UNL     1      -5.392   3.593  -0.325  0.00  0.00    -0.062 A 
ATOM     73  C   UNL     1      -5.751   3.404  -1.662  0.00  0.00    -0.062 A 
ATOM     74  C   UNL     1      -4.763   3.233  -2.634  0.00  0.00    -0.062 A 
ATOM     75  C   UNL     1      -3.413   3.244  -2.270  0.00  0.00    -0.059 A 
ATOM     76  H   UNL     1      -3.779   3.750   1.083  0.00  0.00    +0.062 HD
ATOM     77  H   UNL     1      -6.158   3.729   0.427  0.00  0.00    +0.062 HD
ATOM     78  H   UNL     1      -6.796   3.394  -1.945  0.00  0.00    +0.062 HD
ATOM     79  H   UNL     1      -5.042   3.091  -3.670  0.00  0.00    +0.062 HD
ATOM     80  H   UNL     1      -2.663   3.113  -3.036  0.00  0.00    +0.062 HD
ENDBRANCH  67  70
ENDBRANCH   8  67
BRANCH   6  81
ATOM     81  C   UNL     1       0.150   1.600  -3.146  0.00  0.00    +0.208 C 
ATOM     82  N   UNL     1      -0.400   2.191  -3.975  0.00  0.00    -0.169 NA
ENDBRANCH   6  81
BRANCH   2  83
ATOM     83  O   UNL     1      -0.604   0.331   2.387  0.00  0.00    -0.387 OA
ATOM     84  H   UNL     1      -1.082   0.786   3.129  0.00  0.00    +0.210 HD
ENDBRANCH   2  83
BRANCH   1  85
ATOM     85  O   UNL     1       1.006   3.181   0.733  0.00  0.00    -0.387 OA
ATOM     86  H   UNL     1       1.246   2.814  -0.152  0.00  0.00    +0.210 HD
ENDBRANCH   1  85
TORSDOF 11
