REMARK  Name = 
REMARK  14 active torsions:
REMARK  status: ('A' for Active; 'I' for Inactive)
REMARK    1  A    between atoms: C_1  and  C_2
REMARK    2  A    between atoms: C_2  and  C_3
REMARK    3  A    between atoms: C_2  and  C_4
REMARK    4  A    between atoms: C_4  and  C_5
REMARK    5  A    between atoms: C_5  and  N_6
REMARK    6  A    between atoms: N_6  and  C_7
REMARK    7  A    between atoms: N_6  and  S_33
REMARK    8  A    between atoms: C_7  and  C_8
REMARK    9  A    between atoms: C_8  and  O_9
REMARK   10  A    between atoms: C_8  and  C_10
REMARK   11  A    between atoms: C_24  and  C_25
REMARK   12  A    between atoms: C_25  and  C_26
REMARK   13  A    between atoms: C_25  and  C_27
REMARK   14  A    between atoms: S_33  and  C_36
REMARK                            x       y       z     vdW  Elec       q    Type
REMARK                         _______ _______ _______ _____ _____    ______ ____
ROOT
ATOM      1  C   UNL     1      -0.211   2.135  -0.329  0.00  0.00    +0.054 C 
ATOM      2  C   UNL     1       0.831   3.272  -0.567  0.00  0.00    -0.007 C 
ATOM      3  C   UNL     1       2.220   2.777  -0.902  0.00  0.00    -0.045 A 
ATOM      4  C   UNL     1       3.236   2.806   0.068  0.00  0.00    -0.055 A 
ATOM      5  C   UNL     1       4.465   2.184  -0.175  0.00  0.00    -0.020 A 
ATOM      6  C   UNL     1       4.676   1.486  -1.379  0.00  0.00    +0.121 A 
ATOM      7  O   UNL     1       5.800   0.675  -1.602  0.00  0.00    -0.492 OA
ATOM      8  C   UNL     1       6.718   0.234  -0.600  0.00  0.00    +0.090 C 
ATOM      9  C   UNL     1       6.077  -0.748   0.400  0.00  0.00    -0.018 C 
ATOM     10  C   UNL     1       5.606  -2.075  -0.233  0.00  0.00    -0.042 C 
ATOM     11  C   UNL     1       4.168  -2.047  -0.783  0.00  0.00    +0.024 C 
ATOM     12  C   UNL     1       3.129  -2.032   0.306  0.00  0.00    +0.214 C 
ATOM     13  O   UNL     1       2.720  -3.123   0.787  0.00  0.00    -0.276 OA
ATOM     14  N   UNL     1       2.616  -0.785   0.796  0.00  0.00    -0.304 N 
ATOM     15  C   UNL     1       1.550  -0.664   1.799  0.00  0.00    +0.102 C 
ATOM     16  C   UNL     1       0.618   0.481   1.437  0.00  0.00    +0.234 C 
ATOM     17  O   UNL     1      -0.066   1.038   2.339  0.00  0.00    -0.274 OA
ATOM     18  N   UNL     1       0.443   0.878   0.067  0.00  0.00    -0.308 N 
ATOM     19  C   UNL     1       3.706   1.558  -2.386  0.00  0.00    -0.020 A 
ATOM     20  C   UNL     1       2.488   2.200  -2.153  0.00  0.00    -0.055 A 
ATOM     21  H   UNL     1      -0.881   2.477   0.491  0.00  0.00    +0.053 HD
ATOM     22  H   UNL     1       0.494   3.959  -1.373  0.00  0.00    +0.033 HD
ATOM     23  H   UNL     1       0.880   3.897   0.351  0.00  0.00    +0.033 HD
ATOM     24  H   UNL     1       3.061   3.264   1.034  0.00  0.00    +0.062 HD
ATOM     25  H   UNL     1       5.211   2.187   0.608  0.00  0.00    +0.065 HD
ATOM     26  H   UNL     1       7.137   1.109  -0.058  0.00  0.00    +0.070 HD
ATOM     27  H   UNL     1       7.571  -0.268  -1.103  0.00  0.00    +0.070 HD
ATOM     28  H   UNL     1       5.259  -0.260   0.958  0.00  0.00    +0.030 HD
ATOM     29  H   UNL     1       6.855  -0.993   1.155  0.00  0.00    +0.030 HD
ATOM     30  H   UNL     1       5.672  -2.880   0.533  0.00  0.00    +0.027 HD
ATOM     31  H   UNL     1       6.300  -2.363  -1.052  0.00  0.00    +0.027 HD
ATOM     32  H   UNL     1       4.013  -2.958  -1.400  0.00  0.00    +0.036 HD
ATOM     33  H   UNL     1       4.021  -1.185  -1.461  0.00  0.00    +0.036 HD
ATOM     34  H   UNL     1       3.033   0.089   0.422  0.00  0.00    +0.149 HD
ATOM     35  H   UNL     1       0.927  -1.585   1.789  0.00  0.00    +0.060 HD
ATOM     36  H   UNL     1       0.867   0.290  -0.687  0.00  0.00    +0.149 HD
ATOM     37  H   UNL     1       3.872   1.057  -3.331  0.00  0.00    +0.065 HD
ATOM     38  H   UNL     1       1.737   2.199  -2.930  0.00  0.00    +0.062 HD
ENDROOT
BRANCH  15  39
ATOM     39  C   UNL     1       2.156  -0.491   3.224  0.00  0.00    -0.020 C 
ATOM     40  H   UNL     1       1.316  -0.390   3.946  0.00  0.00    +0.032 HD
BRANCH  39  41
ATOM     41  C   UNL     1       2.953  -1.729   3.656  0.00  0.00    -0.061 C 
ATOM     42  H   UNL     1       3.257  -1.633   4.720  0.00  0.00    +0.023 HD
ATOM     43  H   UNL     1       3.870  -1.847   3.041  0.00  0.00    +0.023 HD
ATOM     44  H   UNL     1       2.329  -2.643   3.560  0.00  0.00    +0.023 HD
ENDBRANCH  39  41
BRANCH  39  45
ATOM     45  C   UNL     1       3.031   0.768   3.348  0.00  0.00    -0.061 C 
ATOM     46  H   UNL     1       2.455   1.679   3.084  0.00  0.00    +0.023 HD
ATOM     47  H   UNL     1       3.919   0.705   2.687  0.00  0.00    +0.023 HD
ATOM     48  H   UNL     1       3.383   0.884   4.396  0.00  0.00    +0.023 HD
ENDBRANCH  39  45
ENDBRANCH  15  39
BRANCH   1  49
ATOM     49  C   UNL     1      -1.116   1.901  -1.567  0.00  0.00    +0.088 C 
ATOM     50  H   UNL     1      -0.457   1.679  -2.438  0.00  0.00    +0.063 HD
BRANCH  49  51
ATOM     51  C   UNL     1      -2.067   0.692  -1.394  0.00  0.00    +0.048 C 
ATOM     52  H   UNL     1      -1.445  -0.215  -1.561  0.00  0.00    +0.047 HD
ATOM     53  H   UNL     1      -2.836   0.680  -2.192  0.00  0.00    +0.047 HD
BRANCH  51  54
ATOM     54  N   UNL     1      -2.683   0.651  -0.050  0.00  0.00    -0.174 NA
BRANCH  54  55
ATOM     55  S   UNL     1      -4.168   1.579   0.101  0.00  0.00    +0.061 S 
ATOM     56  O   UNL     1      -3.841   3.044   0.042  0.00  0.00    -0.153 OA
ATOM     57  O   UNL     1      -4.784   1.316   1.448  0.00  0.00    -0.153 OA
BRANCH  55  58
ATOM     58  C   UNL     1      -5.372   1.228  -1.146  0.00  0.00    +0.105 A 
ATOM     59  C   UNL     1      -6.462   0.387  -0.864  0.00  0.00    -0.035 A 
ATOM     60  C   UNL     1      -7.426   0.131  -1.843  0.00  0.00    -0.060 A 
ATOM     61  C   UNL     1      -7.321   0.726  -3.103  0.00  0.00    -0.062 A 
ATOM     62  C   UNL     1      -6.254   1.585  -3.382  0.00  0.00    -0.060 A 
ATOM     63  C   UNL     1      -5.288   1.842  -2.405  0.00  0.00    -0.035 A 
ATOM     64  H   UNL     1      -6.560  -0.077   0.108  0.00  0.00    +0.064 HD
ATOM     65  H   UNL     1      -8.257  -0.527  -1.624  0.00  0.00    +0.062 HD
ATOM     66  H   UNL     1      -8.069   0.528  -3.859  0.00  0.00    +0.062 HD
ATOM     67  H   UNL     1      -6.179   2.055  -4.353  0.00  0.00    +0.062 HD
ATOM     68  H   UNL     1      -4.478   2.522  -2.630  0.00  0.00    +0.064 HD
ENDBRANCH  55  58
ENDBRANCH  54  55
BRANCH  54  69
ATOM     69  C   UNL     1      -2.775  -0.705   0.535  0.00  0.00    +0.021 C 
ATOM     70  H   UNL     1      -1.743  -1.073   0.716  0.00  0.00    +0.044 HD
ATOM     71  H   UNL     1      -3.249  -0.643   1.533  0.00  0.00    +0.044 HD
BRANCH  69  72
ATOM     72  C   UNL     1      -3.511  -1.729  -0.360  0.00  0.00    -0.036 C 
ATOM     73  H   UNL     1      -2.891  -1.952  -1.254  0.00  0.00    +0.028 HD
ATOM     74  H   UNL     1      -4.455  -1.300  -0.737  0.00  0.00    +0.028 HD
BRANCH  72  75
ATOM     75  C   UNL     1      -3.829  -3.072   0.338  0.00  0.00    -0.046 C 
ATOM     76  H   UNL     1      -4.251  -3.745  -0.441  0.00  0.00    +0.030 HD
BRANCH  75  77
ATOM     77  C   UNL     1      -2.572  -3.758   0.892  0.00  0.00    -0.063 C 
ATOM     78  H   UNL     1      -2.159  -3.197   1.758  0.00  0.00    +0.023 HD
ATOM     79  H   UNL     1      -2.820  -4.787   1.229  0.00  0.00    +0.023 HD
ATOM     80  H   UNL     1      -1.794  -3.829   0.102  0.00  0.00    +0.023 HD
ENDBRANCH  75  77
BRANCH  75  81
ATOM     81  C   UNL     1      -4.901  -2.927   1.428  0.00  0.00    -0.063 C 
ATOM     82  H   UNL     1      -4.516  -2.367   2.305  0.00  0.00    +0.023 HD
ATOM     83  H   UNL     1      -5.223  -3.932   1.775  0.00  0.00    +0.023 HD
ATOM     84  H   UNL     1      -5.793  -2.401   1.024  0.00  0.00    +0.023 HD
ENDBRANCH  75  81
ENDBRANCH  72  75
ENDBRANCH  69  72
ENDBRANCH  54  69
ENDBRANCH  51  54
ENDBRANCH  49  51
BRANCH  49  85
ATOM     85  O   UNL     1      -1.857   3.063  -1.834  0.00  0.00    -0.389 OA
ATOM     86  H   UNL     1      -2.090   3.042  -2.799  0.00  0.00    +0.210 HD
ENDBRANCH  49  85
ENDBRANCH   1  49
TORSDOF 14
