REMARK  Name = 
REMARK  15 active torsions:
REMARK  status: ('A' for Active; 'I' for Inactive)
REMARK    1  A    between atoms: C_1  and  C_2
REMARK    2  A    between atoms: C_2  and  C_3
REMARK    3  A    between atoms: C_3  and  C_4
REMARK    4  A    between atoms: C_4  and  C_5
REMARK    5  A    between atoms: C_5  and  C_6
REMARK    6  A    between atoms: C_6  and  C_7
REMARK    7  A    between atoms: C_14  and  O_15
REMARK    8  A    between atoms: C_16  and  C_17
REMARK    9  A    between atoms: C_17  and  C_18
REMARK   10  A    between atoms: C_17  and  C_20
REMARK   11  A    between atoms: C_18  and  C_19
REMARK   12  A    between atoms: C_24  and  N_25
REMARK   13  A    between atoms: N_25  and  S_26
REMARK   14  A    between atoms: S_26  and  C_29
REMARK   15  A    between atoms: C_32  and  C_33
REMARK                            x       y       z     vdW  Elec       q    Type
REMARK                         _______ _______ _______ _____ _____    ______ ____
ROOT
ATOM      1  C   UNL     1      -3.638  -1.603   0.071  0.00  0.00    +0.260 C 
ATOM      2  O   UNL     1      -2.766  -2.438   0.845  0.00  0.00    -0.421 OA
ATOM      3  C   UNL     1      -1.467  -2.777   0.443  0.00  0.00    +0.293 C 
ATOM      4  C   UNL     1      -1.079  -2.605  -0.836  0.00  0.00    +0.123 C 
ATOM      5  C   UNL     1      -2.105  -2.139  -1.793  0.00  0.00    +0.346 C 
ATOM      6  O   UNL     1      -1.875  -2.116  -3.031  0.00  0.00    -0.245 OA
ATOM      7  O   UNL     1      -3.354  -1.732  -1.325  0.00  0.00    -0.419 OA
ENDROOT
BRANCH   1   8
ATOM      8  C   UNL     1      -3.468  -0.120   0.500  0.00  0.00    +0.029 C 
ATOM      9  H   UNL     1      -3.725  -0.023   1.578  0.00  0.00    +0.034 HD
ATOM     10  H   UNL     1      -4.184   0.506  -0.077  0.00  0.00    +0.034 HD
BRANCH   8  11
ATOM     11  C   UNL     1      -2.050   0.435   0.286  0.00  0.00    -0.021 C 
ATOM     12  H   UNL     1      -1.317  -0.147   0.882  0.00  0.00    +0.032 HD
ATOM     13  H   UNL     1      -1.768   0.346  -0.783  0.00  0.00    +0.032 HD
BRANCH  11  14
ATOM     14  C   UNL     1      -1.962   1.879   0.701  0.00  0.00    -0.047 A 
ATOM     15  C   UNL     1      -1.770   2.216   2.052  0.00  0.00    -0.059 A 
ATOM     16  C   UNL     1      -1.689   3.557   2.438  0.00  0.00    -0.062 A 
ATOM     17  C   UNL     1      -1.800   4.570   1.481  0.00  0.00    -0.062 A 
ATOM     18  C   UNL     1      -1.999   4.243   0.137  0.00  0.00    -0.062 A 
ATOM     19  C   UNL     1      -2.086   2.903  -0.253  0.00  0.00    -0.059 A 
ATOM     20  H   UNL     1      -1.681   1.440   2.802  0.00  0.00    +0.062 HD
ATOM     21  H   UNL     1      -1.536   3.812   3.479  0.00  0.00    +0.062 HD
ATOM     22  H   UNL     1      -1.732   5.607   1.781  0.00  0.00    +0.062 HD
ATOM     23  H   UNL     1      -2.087   5.028  -0.603  0.00  0.00    +0.062 HD
ATOM     24  H   UNL     1      -2.241   2.664  -1.298  0.00  0.00    +0.062 HD
ENDBRANCH  11  14
ENDBRANCH   8  11
ENDBRANCH   1   8
BRANCH   1  25
ATOM     25  C   UNL     1      -5.102  -2.031   0.325  0.00  0.00    +0.025 C 
ATOM     26  H   UNL     1      -5.385  -1.746   1.363  0.00  0.00    +0.034 HD
ATOM     27  H   UNL     1      -5.780  -1.475  -0.359  0.00  0.00    +0.034 HD
BRANCH  25  28
ATOM     28  C   UNL     1      -5.364  -3.544   0.189  0.00  0.00    -0.049 C 
ATOM     29  H   UNL     1      -4.678  -4.121   0.846  0.00  0.00    +0.027 HD
ATOM     30  H   UNL     1      -6.399  -3.744   0.542  0.00  0.00    +0.027 HD
BRANCH  28  31
ATOM     31  C   UNL     1      -5.251  -4.057  -1.246  0.00  0.00    -0.065 C 
ATOM     32  H   UNL     1      -5.677  -5.080  -1.306  0.00  0.00    +0.023 HD
ATOM     33  H   UNL     1      -4.188  -4.116  -1.557  0.00  0.00    +0.023 HD
ATOM     34  H   UNL     1      -5.812  -3.400  -1.944  0.00  0.00    +0.023 HD
ENDBRANCH  28  31
ENDBRANCH  25  28
ENDBRANCH   1  25
BRANCH   4  35
ATOM     35  C   UNL     1       0.373  -2.751  -1.278  0.00  0.00    +0.023 C 
ATOM     36  H   UNL     1       0.428  -2.519  -2.365  0.00  0.00    +0.040 HD
BRANCH  35  37
ATOM     37  C   UNL     1       1.220  -1.692  -0.581  0.00  0.00    -0.038 A 
ATOM     38  C   UNL     1       2.012  -1.966   0.551  0.00  0.00    -0.058 A 
ATOM     39  C   UNL     1       2.662  -0.930   1.226  0.00  0.00    -0.060 A 
ATOM     40  C   UNL     1       2.508   0.392   0.807  0.00  0.00    -0.039 A 
ATOM     41  C   UNL     1       1.706   0.694  -0.307  0.00  0.00    +0.048 A 
ATOM     42  C   UNL     1       1.091  -0.356  -1.005  0.00  0.00    -0.036 A 
ATOM     43  H   UNL     1       2.125  -2.970   0.932  0.00  0.00    +0.062 HD
ATOM     44  H   UNL     1       3.273  -1.153   2.092  0.00  0.00    +0.062 HD
ATOM     45  H   UNL     1       3.013   1.167   1.364  0.00  0.00    +0.064 HD
ATOM     46  H   UNL     1       0.465  -0.127  -1.859  0.00  0.00    +0.064 HD
BRANCH  41  47
ATOM     47  N   UNL     1       1.478   2.047  -0.740  0.00  0.00    -0.216 N 
ATOM     48  H   UNL     1       0.922   2.215  -1.608  0.00  0.00    +0.174 HD
BRANCH  47  49
ATOM     49  S   UNL     1       1.983   3.449   0.149  0.00  0.00    +0.072 S 
ATOM     50  O   UNL     1       1.473   3.348   1.559  0.00  0.00    -0.150 OA
ATOM     51  O   UNL     1       1.402   4.677  -0.493  0.00  0.00    -0.150 OA
BRANCH  49  52
ATOM     52  C   UNL     1       3.739   3.573   0.136  0.00  0.00    +0.109 A 
ATOM     53  C   UNL     1       4.468   3.099  -0.963  0.00  0.00    -0.034 A 
ATOM     54  C   UNL     1       5.864   3.189  -0.972  0.00  0.00    -0.042 A 
ATOM     55  C   UNL     1       6.538   3.757   0.116  0.00  0.00    +0.052 A 
ATOM     56  C   UNL     1       5.810   4.236   1.213  0.00  0.00    -0.042 A 
ATOM     57  C   UNL     1       4.415   4.146   1.222  0.00  0.00    -0.034 A 
ATOM     58  H   UNL     1       3.959   2.660  -1.811  0.00  0.00    +0.064 HD
ATOM     59  H   UNL     1       6.416   2.817  -1.827  0.00  0.00    +0.063 HD
ATOM     60  H   UNL     1       6.321   4.679   2.060  0.00  0.00    +0.063 HD
ATOM     61  H   UNL     1       3.863   4.521   2.075  0.00  0.00    +0.064 HD
BRANCH  55  62
ATOM     62  C   UNL     1       7.974   3.849   0.108  0.00  0.00    +0.099 C 
ATOM     63  N   UNL     1       9.129   3.923   0.101  0.00  0.00    -0.191 NA
ENDBRANCH  55  62
ENDBRANCH  49  52
ENDBRANCH  47  49
ENDBRANCH  41  47
ENDBRANCH  35  37
BRANCH  35  64
ATOM     64  C   UNL     1       0.868  -4.213  -1.161  0.00  0.00    -0.045 C 
ATOM     65  H   UNL     1       0.134  -4.877  -1.670  0.00  0.00    +0.027 HD
ATOM     66  H   UNL     1       0.925  -4.552  -0.108  0.00  0.00    +0.027 HD
BRANCH  64  67
ATOM     67  C   UNL     1       2.226  -4.422  -1.835  0.00  0.00    -0.064 C 
ATOM     68  H   UNL     1       2.170  -4.152  -2.910  0.00  0.00    +0.023 HD
ATOM     69  H   UNL     1       3.010  -3.808  -1.346  0.00  0.00    +0.023 HD
ATOM     70  H   UNL     1       2.518  -5.490  -1.755  0.00  0.00    +0.023 HD
ENDBRANCH  64  67
ENDBRANCH  35  64
ENDBRANCH   4  35
BRANCH   3  71
ATOM     71  O   UNL     1      -0.586  -3.270   1.399  0.00  0.00    -0.480 OA
ATOM     72  H   UNL     1      -0.880  -3.384   2.361  0.00  0.00    +0.295 HD
ENDBRANCH   3  71
TORSDOF 15
