REMARK  Name = 
REMARK  14 active torsions:
REMARK  status: ('A' for Active; 'I' for Inactive)
REMARK    1  A    between atoms: C_1  and  C_2
REMARK    2  A    between atoms: C_2  and  C_3
REMARK    3  A    between atoms: C_2  and  C_4
REMARK    4  A    between atoms: C_4  and  C_5
REMARK    5  A    between atoms: C_5  and  N_6
REMARK    6  A    between atoms: N_6  and  C_7
REMARK    7  A    between atoms: N_6  and  S_33
REMARK    8  A    between atoms: C_7  and  C_8
REMARK    9  A    between atoms: C_8  and  O_9
REMARK   10  A    between atoms: C_8  and  C_10
REMARK   11  A    between atoms: C_24  and  C_25
REMARK   12  A    between atoms: C_25  and  C_26
REMARK   13  A    between atoms: C_25  and  C_27
REMARK   14  A    between atoms: S_33  and  C_36
REMARK                            x       y       z     vdW  Elec       q    Type
REMARK                         _______ _______ _______ _____ _____    ______ ____
ROOT
ATOM      1  C   UNL     1       0.096  -0.146   0.595  0.00  0.00    +0.054 C 
ATOM      2  C   UNL     1       0.736  -0.585   1.933  0.00  0.00    -0.007 C 
ATOM      3  C   UNL     1       2.043  -1.312   1.719  0.00  0.00    -0.045 A 
ATOM      4  C   UNL     1       2.061  -2.592   1.144  0.00  0.00    -0.055 A 
ATOM      5  C   UNL     1       3.275  -3.254   0.933  0.00  0.00    -0.020 A 
ATOM      6  C   UNL     1       4.489  -2.664   1.306  0.00  0.00    +0.121 A 
ATOM      7  O   UNL     1       5.669  -3.400   1.091  0.00  0.00    -0.492 OA
ATOM      8  C   UNL     1       6.991  -3.038   1.502  0.00  0.00    +0.090 C 
ATOM      9  C   UNL     1       7.845  -2.556   0.319  0.00  0.00    -0.018 C 
ATOM     10  C   UNL     1       7.330  -1.256  -0.322  0.00  0.00    -0.042 C 
ATOM     11  C   UNL     1       6.359  -1.520  -1.485  0.00  0.00    +0.024 C 
ATOM     12  C   UNL     1       5.451  -0.347  -1.720  0.00  0.00    +0.214 C 
ATOM     13  O   UNL     1       5.937   0.814  -1.806  0.00  0.00    -0.276 OA
ATOM     14  N   UNL     1       4.039  -0.555  -1.865  0.00  0.00    -0.304 N 
ATOM     15  C   UNL     1       3.068   0.544  -1.802  0.00  0.00    +0.102 C 
ATOM     16  C   UNL     1       1.728   0.016  -1.343  0.00  0.00    +0.234 C 
ATOM     17  O   UNL     1       1.198  -0.958  -1.946  0.00  0.00    -0.274 OA
ATOM     18  N   UNL     1       1.075   0.598  -0.206  0.00  0.00    -0.308 N 
ATOM     19  C   UNL     1       4.470  -1.375   1.877  0.00  0.00    -0.020 A 
ATOM     20  C   UNL     1       3.259  -0.705   2.070  0.00  0.00    -0.055 A 
ATOM     21  H   UNL     1      -0.206  -1.070   0.053  0.00  0.00    +0.053 HD
ATOM     22  H   UNL     1       0.904   0.297   2.585  0.00  0.00    +0.033 HD
ATOM     23  H   UNL     1       0.045  -1.266   2.474  0.00  0.00    +0.033 HD
ATOM     24  H   UNL     1       1.136  -3.075   0.857  0.00  0.00    +0.062 HD
ATOM     25  H   UNL     1       3.271  -4.241   0.487  0.00  0.00    +0.065 HD
ATOM     26  H   UNL     1       6.995  -2.301   2.329  0.00  0.00    +0.070 HD
ATOM     27  H   UNL     1       7.474  -3.950   1.909  0.00  0.00    +0.070 HD
ATOM     28  H   UNL     1       7.925  -3.364  -0.442  0.00  0.00    +0.030 HD
ATOM     29  H   UNL     1       8.872  -2.373   0.702  0.00  0.00    +0.030 HD
ATOM     30  H   UNL     1       8.199  -0.688  -0.724  0.00  0.00    +0.027 HD
ATOM     31  H   UNL     1       6.867  -0.609   0.451  0.00  0.00    +0.027 HD
ATOM     32  H   UNL     1       5.745  -2.421  -1.278  0.00  0.00    +0.036 HD
ATOM     33  H   UNL     1       6.936  -1.723  -2.413  0.00  0.00    +0.036 HD
ATOM     34  H   UNL     1       3.695  -1.539  -1.944  0.00  0.00    +0.149 HD
ATOM     35  H   UNL     1       3.424   1.263  -1.031  0.00  0.00    +0.060 HD
ATOM     36  H   UNL     1       1.433   1.505   0.169  0.00  0.00    +0.149 HD
ATOM     37  H   UNL     1       5.374  -0.871   2.178  0.00  0.00    +0.065 HD
ATOM     38  H   UNL     1       3.270   0.288   2.501  0.00  0.00    +0.062 HD
ENDROOT
BRANCH  15  39
ATOM     39  C   UNL     1       2.993   1.302  -3.156  0.00  0.00    -0.020 C 
ATOM     40  H   UNL     1       4.013   1.683  -3.385  0.00  0.00    +0.032 HD
BRANCH  39  41
ATOM     41  C   UNL     1       2.074   2.528  -3.062  0.00  0.00    -0.061 C 
ATOM     42  H   UNL     1       1.020   2.222  -2.886  0.00  0.00    +0.023 HD
ATOM     43  H   UNL     1       2.399   3.189  -2.231  0.00  0.00    +0.023 HD
ATOM     44  H   UNL     1       2.119   3.112  -4.006  0.00  0.00    +0.023 HD
ENDBRANCH  39  41
BRANCH  39  45
ATOM     45  C   UNL     1       2.575   0.406  -4.334  0.00  0.00    -0.061 C 
ATOM     46  H   UNL     1       1.514   0.095  -4.245  0.00  0.00    +0.023 HD
ATOM     47  H   UNL     1       2.691   0.963  -5.288  0.00  0.00    +0.023 HD
ATOM     48  H   UNL     1       3.217  -0.497  -4.388  0.00  0.00    +0.023 HD
ENDBRANCH  39  45
ENDBRANCH  15  39
BRANCH   1  49
ATOM     49  C   UNL     1      -1.186   0.709   0.764  0.00  0.00    +0.088 C 
ATOM     50  H   UNL     1      -1.539   0.945  -0.264  0.00  0.00    +0.063 HD
BRANCH  49  51
ATOM     51  C   UNL     1      -2.332  -0.048   1.469  0.00  0.00    +0.048 C 
ATOM     52  H   UNL     1      -2.430  -1.058   1.012  0.00  0.00    +0.047 HD
ATOM     53  H   UNL     1      -2.053  -0.233   2.529  0.00  0.00    +0.047 HD
BRANCH  51  54
ATOM     54  N   UNL     1      -3.585   0.736   1.352  0.00  0.00    -0.174 NA
BRANCH  54  55
ATOM     55  S   UNL     1      -4.228   1.122   2.933  0.00  0.00    +0.061 S 
ATOM     56  O   UNL     1      -3.160   1.747   3.787  0.00  0.00    -0.153 OA
ATOM     57  O   UNL     1      -4.716  -0.137   3.595  0.00  0.00    -0.153 OA
BRANCH  55  58
ATOM     58  C   UNL     1      -5.551   2.273   2.773  0.00  0.00    +0.105 A 
ATOM     59  C   UNL     1      -5.452   3.324   1.849  0.00  0.00    -0.035 A 
ATOM     60  C   UNL     1      -6.500   4.239   1.712  0.00  0.00    -0.060 A 
ATOM     61  C   UNL     1      -7.648   4.113   2.499  0.00  0.00    -0.062 A 
ATOM     62  C   UNL     1      -7.749   3.071   3.425  0.00  0.00    -0.060 A 
ATOM     63  C   UNL     1      -6.703   2.152   3.564  0.00  0.00    -0.035 A 
ATOM     64  H   UNL     1      -4.567   3.430   1.235  0.00  0.00    +0.064 HD
ATOM     65  H   UNL     1      -6.421   5.047   0.996  0.00  0.00    +0.062 HD
ATOM     66  H   UNL     1      -8.458   4.822   2.392  0.00  0.00    +0.062 HD
ATOM     67  H   UNL     1      -8.637   2.975   4.036  0.00  0.00    +0.062 HD
ATOM     68  H   UNL     1      -6.793   1.352   4.287  0.00  0.00    +0.064 HD
ENDBRANCH  55  58
ENDBRANCH  54  55
BRANCH  54  69
ATOM     69  C   UNL     1      -4.614   0.037   0.556  0.00  0.00    +0.021 C 
ATOM     70  H   UNL     1      -5.597   0.540   0.683  0.00  0.00    +0.044 HD
ATOM     71  H   UNL     1      -4.731  -1.013   0.905  0.00  0.00    +0.044 HD
BRANCH  69  72
ATOM     72  C   UNL     1      -4.265   0.079  -0.941  0.00  0.00    -0.036 C 
ATOM     73  H   UNL     1      -3.367  -0.544  -1.140  0.00  0.00    +0.028 HD
ATOM     74  H   UNL     1      -4.011   1.131  -1.202  0.00  0.00    +0.028 HD
BRANCH  72  75
ATOM     75  C   UNL     1      -5.427  -0.392  -1.844  0.00  0.00    -0.046 C 
ATOM     76  H   UNL     1      -6.343   0.187  -1.589  0.00  0.00    +0.030 HD
BRANCH  75  77
ATOM     77  C   UNL     1      -5.096  -0.109  -3.315  0.00  0.00    -0.063 C 
ATOM     78  H   UNL     1      -4.922   0.978  -3.468  0.00  0.00    +0.023 HD
ATOM     79  H   UNL     1      -5.943  -0.414  -3.966  0.00  0.00    +0.023 HD
ATOM     80  H   UNL     1      -4.185  -0.665  -3.625  0.00  0.00    +0.023 HD
ENDBRANCH  75  77
BRANCH  75  81
ATOM     81  C   UNL     1      -5.729  -1.886  -1.655  0.00  0.00    -0.063 C 
ATOM     82  H   UNL     1      -6.515  -2.212  -2.368  0.00  0.00    +0.023 HD
ATOM     83  H   UNL     1      -6.109  -2.082  -0.631  0.00  0.00    +0.023 HD
ATOM     84  H   UNL     1      -4.816  -2.496  -1.827  0.00  0.00    +0.023 HD
ENDBRANCH  75  81
ENDBRANCH  72  75
ENDBRANCH  69  72
ENDBRANCH  54  69
ENDBRANCH  51  54
ENDBRANCH  49  51
BRANCH  49  85
ATOM     85  O   UNL     1      -0.914   1.938   1.394  0.00  0.00    -0.389 OA
ATOM     86  H   UNL     1      -0.800   1.770   2.364  0.00  0.00    +0.210 HD
ENDBRANCH  49  85
ENDBRANCH   1  49
TORSDOF 14
