REMARK  Name = 
REMARK  15 active torsions:
REMARK  status: ('A' for Active; 'I' for Inactive)
REMARK    1  A    between atoms: C_1  and  O_2
REMARK    2  A    between atoms: O_2  and  C_3
REMARK    3  A    between atoms: C_6  and  S_7
REMARK    4  A    between atoms: S_7  and  N_10
REMARK    5  A    between atoms: N_10  and  C_11
REMARK    6  A    between atoms: N_10  and  O_31
REMARK    7  A    between atoms: C_11  and  C_12
REMARK    8  A    between atoms: C_12  and  O_13
REMARK    9  A    between atoms: C_12  and  C_14
REMARK   10  A    between atoms: C_14  and  C_15
REMARK   11  A    between atoms: C_14  and  N_22
REMARK   12  A    between atoms: C_15  and  C_16
REMARK   13  A    between atoms: C_23  and  O_25
REMARK   14  A    between atoms: O_25  and  C_26
REMARK   15  A    between atoms: O_31  and  C_32
REMARK                            x       y       z     vdW  Elec       q    Type
REMARK                         _______ _______ _______ _____ _____    ______ ____
ROOT
ATOM      1  C   UNL     1       1.182  -0.131   1.204  0.00  0.00    +0.075 C 
ATOM      2  H   UNL     1       1.446  -0.059   0.134  0.00  0.00    +0.049 HD
ATOM      3  H   UNL     1       1.198  -1.208   1.466  0.00  0.00    +0.049 HD
ENDROOT
BRANCH   1   4
ATOM      4  C   UNL     1      -0.254   0.377   1.457  0.00  0.00    +0.091 C 
ATOM      5  H   UNL     1      -0.449   0.237   2.543  0.00  0.00    +0.063 HD
BRANCH   4   6
ATOM      6  O   UNL     1      -0.368   1.752   1.192  0.00  0.00    -0.389 OA
ATOM      7  H   UNL     1      -0.048   1.911   0.268  0.00  0.00    +0.210 HD
ENDBRANCH   4   6
BRANCH   4   8
ATOM      8  C   UNL     1      -1.323  -0.458   0.695  0.00  0.00    +0.057 C 
ATOM      9  H   UNL     1      -1.058  -1.527   0.858  0.00  0.00    +0.053 HD
BRANCH   8  10
ATOM     10  N   UNL     1      -2.658  -0.262   1.284  0.00  0.00    -0.275 N 
ATOM     11  C   UNL     1      -3.460   0.921   1.160  0.00  0.00    +0.401 C 
ATOM     12  O   UNL     1      -3.005   1.954   0.599  0.00  0.00    -0.226 OA
ATOM     13  H   UNL     1      -3.090  -1.077   1.776  0.00  0.00    +0.152 HD
BRANCH  11  14
ATOM     14  O   UNL     1      -4.768   0.906   1.653  0.00  0.00    -0.445 OA
BRANCH  14  15
ATOM     15  C   UNL     1      -5.687   1.980   1.456  0.00  0.00    +0.130 C 
ATOM     16  C   UNL     1      -6.160   2.054   0.034  0.00  0.00    +0.010 C 
ATOM     17  C   UNL     1      -7.588   2.540   0.178  0.00  0.00    +0.051 C 
ATOM     18  O   UNL     1      -8.051   2.268   1.482  0.00  0.00    -0.376 OA
ATOM     19  C   UNL     1      -6.973   1.738   2.218  0.00  0.00    +0.085 C 
ATOM     20  H   UNL     1      -5.237   2.949   1.773  0.00  0.00    +0.076 HD
ATOM     21  H   UNL     1      -5.543   2.754  -0.570  0.00  0.00    +0.032 HD
ATOM     22  H   UNL     1      -6.152   1.043  -0.434  0.00  0.00    +0.032 HD
ATOM     23  H   UNL     1      -7.631   3.637   0.005  0.00  0.00    +0.056 HD
ATOM     24  H   UNL     1      -8.245   2.040  -0.565  0.00  0.00    +0.056 HD
ATOM     25  H   UNL     1      -7.143   0.647   2.361  0.00  0.00    +0.060 HD
ATOM     26  H   UNL     1      -6.928   2.221   3.217  0.00  0.00    +0.060 HD
ENDBRANCH  14  15
ENDBRANCH  11  14
ENDBRANCH   8  10
BRANCH   8  27
ATOM     27  C   UNL     1      -1.335  -0.240  -0.839  0.00  0.00    -0.007 C 
ATOM     28  H   UNL     1      -0.333  -0.470  -1.258  0.00  0.00    +0.033 HD
ATOM     29  H   UNL     1      -1.543   0.819  -1.093  0.00  0.00    +0.033 HD
BRANCH  27  30
ATOM     30  C   UNL     1      -2.345  -1.134  -1.513  0.00  0.00    -0.046 A 
ATOM     31  C   UNL     1      -2.059  -2.494  -1.718  0.00  0.00    -0.059 A 
ATOM     32  C   UNL     1      -3.009  -3.332  -2.312  0.00  0.00    -0.062 A 
ATOM     33  C   UNL     1      -4.250  -2.820  -2.700  0.00  0.00    -0.062 A 
ATOM     34  C   UNL     1      -4.544  -1.469  -2.495  0.00  0.00    -0.062 A 
ATOM     35  C   UNL     1      -3.597  -0.628  -1.904  0.00  0.00    -0.059 A 
ATOM     36  H   UNL     1      -1.104  -2.904  -1.415  0.00  0.00    +0.062 HD
ATOM     37  H   UNL     1      -2.783  -4.379  -2.469  0.00  0.00    +0.062 HD
ATOM     38  H   UNL     1      -4.984  -3.470  -3.158  0.00  0.00    +0.062 HD
ATOM     39  H   UNL     1      -5.507  -1.074  -2.793  0.00  0.00    +0.062 HD
ATOM     40  H   UNL     1      -3.841   0.416  -1.750  0.00  0.00    +0.062 HD
ENDBRANCH  27  30
ENDBRANCH   8  27
ENDBRANCH   4   8
ENDBRANCH   1   4
BRANCH   1  41
ATOM     41  N   UNL     1       2.140   0.616   2.044  0.00  0.00    -0.052 NA
BRANCH  41  42
ATOM     42  S   UNL     1       3.066   1.884   1.258  0.00  0.00    +0.083 S 
ATOM     43  O   UNL     1       2.238   3.138   1.231  0.00  0.00    -0.151 OA
ATOM     44  O   UNL     1       4.299   2.173   2.067  0.00  0.00    -0.151 OA
BRANCH  42  48
ATOM     45  C   UNL     1       4.298   0.898  -3.051  0.00  0.00    +0.120 A 
ATOM     46  C   UNL     1       3.028   1.440  -2.779  0.00  0.00    -0.018 A 
ATOM     47  C   UNL     1       2.659   1.744  -1.465  0.00  0.00    -0.032 A 
ATOM     48  C   UNL     1       3.542   1.497  -0.404  0.00  0.00    +0.108 A 
ATOM     49  C   UNL     1       4.816   0.980  -0.680  0.00  0.00    -0.032 A 
ATOM     50  C   UNL     1       5.186   0.676  -1.993  0.00  0.00    -0.018 A 
ATOM     51  H   UNL     1       2.320   1.632  -3.573  0.00  0.00    +0.065 HD
ATOM     52  H   UNL     1       1.683   2.168  -1.279  0.00  0.00    +0.064 HD
ATOM     53  H   UNL     1       5.526   0.812   0.116  0.00  0.00    +0.064 HD
ATOM     54  H   UNL     1       6.169   0.269  -2.189  0.00  0.00    +0.065 HD
BRANCH  45  55
ATOM     55  O   UNL     1       4.714   0.572  -4.351  0.00  0.00    -0.495 OA
BRANCH  55  56
ATOM     56  C   UNL     1       3.915   0.741  -5.517  0.00  0.00    +0.079 C 
ATOM     57  H   UNL     1       3.657   1.813  -5.651  0.00  0.00    +0.066 HD
ATOM     58  H   UNL     1       4.489   0.400  -6.402  0.00  0.00    +0.066 HD
ATOM     59  H   UNL     1       2.990   0.132  -5.437  0.00  0.00    +0.066 HD
ENDBRANCH  55  56
ENDBRANCH  45  55
ENDBRANCH  42  48
ENDBRANCH  41  42
BRANCH  41  60
ATOM     60  O   UNL     1       2.884  -0.164   2.901  0.00  0.00    -0.273 OA
BRANCH  60  61
ATOM     61  C   UNL     1       3.772  -1.024   2.197  0.00  0.00    +0.082 C 
ATOM     62  C   UNL     1       5.179  -0.885   2.761  0.00  0.00    -0.025 C 
ATOM     63  C   UNL     1       5.829  -2.238   2.549  0.00  0.00    -0.051 C 
ATOM     64  C   UNL     1       4.702  -3.252   2.674  0.00  0.00    -0.051 C 
ATOM     65  C   UNL     1       3.400  -2.491   2.428  0.00  0.00    -0.025 C 
ATOM     66  H   UNL     1       3.806  -0.841   1.100  0.00  0.00    +0.062 HD
ATOM     67  H   UNL     1       5.135  -0.668   3.853  0.00  0.00    +0.029 HD
ATOM     68  H   UNL     1       5.755  -0.083   2.258  0.00  0.00    +0.029 HD
ATOM     69  H   UNL     1       6.263  -2.284   1.526  0.00  0.00    +0.027 HD
ATOM     70  H   UNL     1       6.630  -2.424   3.297  0.00  0.00    +0.027 HD
ATOM     71  H   UNL     1       4.699  -3.686   3.698  0.00  0.00    +0.027 HD
ATOM     72  H   UNL     1       4.832  -4.073   1.936  0.00  0.00    +0.027 HD
ATOM     73  H   UNL     1       2.876  -2.905   1.539  0.00  0.00    +0.029 HD
ATOM     74  H   UNL     1       2.733  -2.595   3.312  0.00  0.00    +0.029 HD
ENDBRANCH  60  61
ENDBRANCH  41  60
ENDBRANCH   1  41
TORSDOF 15
