REMARK  Name = 
REMARK  14 active torsions:
REMARK  status: ('A' for Active; 'I' for Inactive)
REMARK    1  A    between atoms: C_1  and  C_2
REMARK    2  A    between atoms: C_2  and  C_3
REMARK    3  A    between atoms: C_2  and  C_4
REMARK    4  A    between atoms: C_2  and  N_5
REMARK    5  A    between atoms: C_6  and  C_8
REMARK    6  A    between atoms: C_13  and  C_14
REMARK    7  A    between atoms: C_14  and  C_15
REMARK    8  A    between atoms: C_15  and  O_16
REMARK    9  A    between atoms: C_15  and  C_17
REMARK   10  A    between atoms: C_17  and  C_18
REMARK   11  A    between atoms: C_17  and  N_30
REMARK   12  A    between atoms: C_18  and  S_19
REMARK   13  A    between atoms: S_19  and  C_20
REMARK   14  A    between atoms: C_31  and  C_33
REMARK                            x       y       z     vdW  Elec       q    Type
REMARK                         _______ _______ _______ _____ _____    ______ ____
ROOT
ATOM      1  C   UNL     1      -0.384  -0.377  -0.067  0.00  0.00    +0.059 C 
ATOM      2  H   UNL     1      -0.233  -0.139   1.009  0.00  0.00    +0.053 HD
ENDROOT
BRANCH   1   3
ATOM      3  N   UNL     1      -0.771   0.837  -0.797  0.00  0.00    -0.305 N 
ATOM      4  C   UNL     1      -1.063   2.088  -0.156  0.00  0.00    +0.245 C 
ATOM      5  O   UNL     1      -1.015   2.188   1.100  0.00  0.00    -0.270 OA
ATOM      6  H   UNL     1      -0.878   0.775  -1.835  0.00  0.00    +0.149 HD
BRANCH   4   7
ATOM      7  C   UNL     1      -1.466   3.259  -0.966  0.00  0.00    +0.047 A 
ATOM      8  C   UNL     1      -2.494   3.093  -1.906  0.00  0.00    -0.031 A 
ATOM      9  C   UNL     1      -2.930   4.180  -2.663  0.00  0.00    +0.029 A 
ATOM     10  N   UNL     1      -2.361   5.400  -2.498  0.00  0.00    -0.255 NA
ATOM     11  C   UNL     1      -1.354   5.608  -1.609  0.00  0.00    +0.072 A 
ATOM     12  C   UNL     1      -0.790   6.883  -1.492  0.00  0.00    -0.036 A 
ATOM     13  C   UNL     1       0.264   7.106  -0.604  0.00  0.00    -0.060 A 
ATOM     14  C   UNL     1       0.764   6.056   0.167  0.00  0.00    -0.061 A 
ATOM     15  C   UNL     1       0.207   4.778   0.063  0.00  0.00    -0.052 A 
ATOM     16  C   UNL     1      -0.870   4.536  -0.816  0.00  0.00    +0.012 A 
ATOM     17  H   UNL     1      -2.973   2.131  -2.039  0.00  0.00    +0.064 HD
ATOM     18  H   UNL     1      -3.730   4.053  -3.380  0.00  0.00    +0.083 HD
ATOM     19  H   UNL     1      -1.163   7.703  -2.095  0.00  0.00    +0.064 HD
ATOM     20  H   UNL     1       0.700   8.093  -0.520  0.00  0.00    +0.062 HD
ATOM     21  H   UNL     1       1.590   6.230   0.844  0.00  0.00    +0.062 HD
ATOM     22  H   UNL     1       0.636   3.990   0.662  0.00  0.00    +0.062 HD
ENDBRANCH   4   7
ENDBRANCH   1   3
BRANCH   1  23
ATOM     23  C   UNL     1      -1.513  -1.417  -0.169  0.00  0.00    +0.019 C 
ATOM     24  H   UNL     1      -1.710  -1.660  -1.235  0.00  0.00    +0.040 HD
ATOM     25  H   UNL     1      -1.230  -2.347   0.365  0.00  0.00    +0.040 HD
BRANCH  23  26
ATOM     26  S   UNL     1      -3.044  -0.777   0.597  0.00  0.00    -0.123 S 
BRANCH  26  27
ATOM     27  C   UNL     1      -4.009  -2.223   0.159  0.00  0.00    +0.009 A 
ATOM     28  C   UNL     1      -4.700  -2.259  -1.058  0.00  0.00    -0.048 A 
ATOM     29  C   UNL     1      -5.453  -3.383  -1.408  0.00  0.00    -0.053 A 
ATOM     30  C   UNL     1      -5.522  -4.483  -0.540  0.00  0.00    -0.018 A 
ATOM     31  C   UNL     1      -6.274  -5.618  -0.881  0.00  0.00    -0.054 A 
ATOM     32  C   UNL     1      -6.334  -6.708  -0.007  0.00  0.00    -0.061 A 
ATOM     33  C   UNL     1      -5.647  -6.673   1.210  0.00  0.00    -0.061 A 
ATOM     34  C   UNL     1      -4.895  -5.548   1.562  0.00  0.00    -0.054 A 
ATOM     35  C   UNL     1      -4.826  -4.447   0.694  0.00  0.00    -0.017 A 
ATOM     36  C   UNL     1      -4.074  -3.313   1.035  0.00  0.00    -0.041 A 
ATOM     37  H   UNL     1      -4.651  -1.415  -1.735  0.00  0.00    +0.063 HD
ATOM     38  H   UNL     1      -5.979  -3.393  -2.355  0.00  0.00    +0.062 HD
ATOM     39  H   UNL     1      -6.812  -5.663  -1.820  0.00  0.00    +0.062 HD
ATOM     40  H   UNL     1      -6.914  -7.582  -0.273  0.00  0.00    +0.062 HD
ATOM     41  H   UNL     1      -5.698  -7.520   1.882  0.00  0.00    +0.062 HD
ATOM     42  H   UNL     1      -4.369  -5.539   2.509  0.00  0.00    +0.062 HD
ATOM     43  H   UNL     1      -3.536  -3.274   1.975  0.00  0.00    +0.063 HD
ENDBRANCH  26  27
ENDBRANCH  23  26
ENDBRANCH   1  23
BRANCH   1  44
ATOM     44  C   UNL     1       0.965  -0.900  -0.627  0.00  0.00    +0.078 C 
ATOM     45  H   UNL     1       1.677  -0.039  -0.629  0.00  0.00    +0.062 HD
BRANCH  44  46
ATOM     46  C   UNL     1       1.583  -2.002   0.255  0.00  0.00    +0.001 C 
ATOM     47  H   UNL     1       1.582  -1.687   1.319  0.00  0.00    +0.034 HD
ATOM     48  H   UNL     1       0.965  -2.924   0.202  0.00  0.00    +0.034 HD
BRANCH  46  54
ATOM     49  C   UNL     1       4.104  -1.540   0.217  0.00  0.00    +0.040 A 
ATOM     50  C   UNL     1       5.376  -1.806  -0.311  0.00  0.00    -0.049 A 
ATOM     51  C   UNL     1       5.559  -2.847  -1.223  0.00  0.00    -0.061 A 
ATOM     52  C   UNL     1       4.472  -3.624  -1.625  0.00  0.00    -0.061 A 
ATOM     53  C   UNL     1       3.197  -3.359  -1.120  0.00  0.00    -0.058 A 
ATOM     54  C   UNL     1       2.995  -2.321  -0.192  0.00  0.00    -0.033 A 
ATOM     55  H   UNL     1       6.230  -1.210  -0.010  0.00  0.00    +0.063 HD
ATOM     56  H   UNL     1       6.545  -3.050  -1.622  0.00  0.00    +0.062 HD
ATOM     57  H   UNL     1       4.615  -4.426  -2.337  0.00  0.00    +0.062 HD
ATOM     58  H   UNL     1       2.362  -3.957  -1.463  0.00  0.00    +0.062 HD
BRANCH  49  60
ATOM     59  N   UNL     1       4.074   0.925   0.724  0.00  0.00    -0.307 N 
ATOM     60  C   UNL     1       3.959  -0.435   1.177  0.00  0.00    +0.245 C 
ATOM     61  O   UNL     1       3.733  -0.701   2.388  0.00  0.00    -0.270 OA
ATOM     62  H   UNL     1       4.330   1.060  -0.282  0.00  0.00    +0.150 HD
BRANCH  59  63
ATOM     63  C   UNL     1       3.765   2.114   1.541  0.00  0.00    +0.026 C 
BRANCH  63  64
ATOM     64  C   UNL     1       4.785   2.244   2.688  0.00  0.00    -0.044 C 
ATOM     65  H   UNL     1       5.819   2.267   2.281  0.00  0.00    +0.025 HD
ATOM     66  H   UNL     1       4.610   3.180   3.261  0.00  0.00    +0.025 HD
ATOM     67  H   UNL     1       4.709   1.395   3.396  0.00  0.00    +0.025 HD
ENDBRANCH  63  64
BRANCH  63  68
ATOM     68  C   UNL     1       3.856   3.371   0.653  0.00  0.00    -0.044 C 
ATOM     69  H   UNL     1       3.131   3.304  -0.188  0.00  0.00    +0.025 HD
ATOM     70  H   UNL     1       3.628   4.289   1.237  0.00  0.00    +0.025 HD
ATOM     71  H   UNL     1       4.877   3.473   0.225  0.00  0.00    +0.025 HD
ENDBRANCH  63  68
BRANCH  63  72
ATOM     72  C   UNL     1       2.334   2.017   2.106  0.00  0.00    -0.044 C 
ATOM     73  H   UNL     1       1.621   1.792   1.286  0.00  0.00    +0.025 HD
ATOM     74  H   UNL     1       2.247   1.219   2.871  0.00  0.00    +0.025 HD
ATOM     75  H   UNL     1       2.036   2.973   2.588  0.00  0.00    +0.025 HD
ENDBRANCH  63  72
ENDBRANCH  59  63
ENDBRANCH  49  60
ENDBRANCH  46  54
ENDBRANCH  44  46
BRANCH  44  76
ATOM     76  O   UNL     1       0.799  -1.391  -1.935  0.00  0.00    -0.390 OA
ATOM     77  H   UNL     1       0.960  -0.634  -2.557  0.00  0.00    +0.210 HD
ENDBRANCH  44  76
ENDBRANCH   1  44
TORSDOF 14
