REMARK  Name = 
REMARK  9 active torsions:
REMARK  status: ('A' for Active; 'I' for Inactive)
REMARK    1  A    between atoms: C_1  and  C_2
REMARK    2  A    between atoms: C_2  and  C_3
REMARK    3  A    between atoms: C_3  and  C_4
REMARK    4  A    between atoms: C_3  and  C_22
REMARK    5  A    between atoms: C_8  and  N_9
REMARK    6  A    between atoms: N_9  and  S_10
REMARK    7  A    between atoms: S_10  and  C_13
REMARK    8  A    between atoms: C_16  and  C_17
REMARK    9  A    between atoms: C_23  and  O_24
REMARK                            x       y       z     vdW  Elec       q    Type
REMARK                         _______ _______ _______ _____ _____    ______ ____
ROOT
ATOM      1  C   UNL     1      -0.100   1.790  -1.108  0.00  0.00    +0.019 C 
ATOM      2  H   UNL     1       0.177   2.421  -0.236  0.00  0.00    +0.040 HD
ENDROOT
BRANCH   1   3
ATOM      3  C   UNL     1      -1.490   1.188  -0.895  0.00  0.00    +0.086 A 
ATOM      4  C   UNL     1      -2.254   1.522   0.243  0.00  0.00    +0.134 A 
ATOM      5  C   UNL     1      -3.561   0.998   0.389  0.00  0.00    +0.033 A 
ATOM      6  C   UNL     1      -4.495   1.483   1.481  0.00  0.00    -0.021 C 
ATOM      7  C   UNL     1      -4.637   0.477   2.645  0.00  0.00    -0.049 C 
ATOM      8  C   UNL     1      -5.976  -0.293   2.613  0.00  0.00    -0.053 C 
ATOM      9  C   UNL     1      -5.929  -1.691   1.963  0.00  0.00    -0.053 C 
ATOM     10  C   UNL     1      -5.055  -1.847   0.706  0.00  0.00    -0.046 C 
ATOM     11  C   UNL     1      -5.264  -0.755  -0.364  0.00  0.00    +0.006 C 
ATOM     12  C   UNL     1      -3.994   0.035  -0.549  0.00  0.00    +0.116 A 
ATOM     13  O   UNL     1      -3.234  -0.267  -1.594  0.00  0.00    -0.427 OA
ATOM     14  C   UNL     1      -2.045   0.275  -1.815  0.00  0.00    +0.344 A 
ATOM     15  O   UNL     1      -1.415  -0.060  -2.852  0.00  0.00    -0.245 OA
ATOM     16  H   UNL     1      -5.477   1.734   1.031  0.00  0.00    +0.032 HD
ATOM     17  H   UNL     1      -4.168   2.463   1.881  0.00  0.00    +0.032 HD
ATOM     18  H   UNL     1      -4.611   1.060   3.592  0.00  0.00    +0.027 HD
ATOM     19  H   UNL     1      -3.771  -0.219   2.696  0.00  0.00    +0.027 HD
ATOM     20  H   UNL     1      -6.776   0.312   2.136  0.00  0.00    +0.027 HD
ATOM     21  H   UNL     1      -6.315  -0.436   3.663  0.00  0.00    +0.027 HD
ATOM     22  H   UNL     1      -5.564  -2.420   2.720  0.00  0.00    +0.027 HD
ATOM     23  H   UNL     1      -6.970  -1.991   1.711  0.00  0.00    +0.027 HD
ATOM     24  H   UNL     1      -5.291  -2.835   0.255  0.00  0.00    +0.027 HD
ATOM     25  H   UNL     1      -3.988  -1.914   1.017  0.00  0.00    +0.027 HD
ATOM     26  H   UNL     1      -5.515  -1.247  -1.330  0.00  0.00    +0.034 HD
ATOM     27  H   UNL     1      -6.126  -0.096  -0.140  0.00  0.00    +0.034 HD
BRANCH   4  28
ATOM     28  O   UNL     1      -1.686   2.353   1.216  0.00  0.00    -0.506 OA
ATOM     29  H   UNL     1      -2.056   2.463   2.150  0.00  0.00    +0.292 HD
ENDBRANCH   4  28
ENDBRANCH   1   3
BRANCH   1  30
ATOM     30  C   UNL     1       0.956   0.692  -1.145  0.00  0.00    -0.038 A 
ATOM     31  C   UNL     1       1.549   0.242  -2.342  0.00  0.00    -0.058 A 
ATOM     32  C   UNL     1       2.488  -0.790  -2.321  0.00  0.00    -0.060 A 
ATOM     33  C   UNL     1       2.848  -1.393  -1.115  0.00  0.00    -0.039 A 
ATOM     34  C   UNL     1       2.268  -0.966   0.092  0.00  0.00    +0.048 A 
ATOM     35  C   UNL     1       1.319   0.068   0.063  0.00  0.00    -0.036 A 
ATOM     36  H   UNL     1       1.288   0.675  -3.297  0.00  0.00    +0.062 HD
ATOM     37  H   UNL     1       2.936  -1.129  -3.246  0.00  0.00    +0.062 HD
ATOM     38  H   UNL     1       3.570  -2.196  -1.139  0.00  0.00    +0.064 HD
ATOM     39  H   UNL     1       0.860   0.393   0.990  0.00  0.00    +0.064 HD
BRANCH  34  40
ATOM     40  N   UNL     1       2.612  -1.565   1.355  0.00  0.00    -0.216 N 
ATOM     41  H   UNL     1       2.082  -1.284   2.211  0.00  0.00    +0.174 HD
BRANCH  40  42
ATOM     42  S   UNL     1       3.953  -2.643   1.583  0.00  0.00    +0.072 S 
ATOM     43  O   UNL     1       4.120  -2.922   3.050  0.00  0.00    -0.150 OA
ATOM     44  O   UNL     1       3.671  -3.935   0.868  0.00  0.00    -0.150 OA
BRANCH  42  45
ATOM     45  C   UNL     1       5.431  -1.903   0.976  0.00  0.00    +0.109 A 
ATOM     46  C   UNL     1       5.644  -0.528   1.144  0.00  0.00    -0.034 A 
ATOM     47  C   UNL     1       6.810   0.068   0.653  0.00  0.00    -0.042 A 
ATOM     48  C   UNL     1       7.771  -0.709  -0.006  0.00  0.00    +0.052 A 
ATOM     49  C   UNL     1       7.563  -2.084  -0.170  0.00  0.00    -0.042 A 
ATOM     50  C   UNL     1       6.397  -2.680   0.320  0.00  0.00    -0.034 A 
ATOM     51  H   UNL     1       4.908   0.082   1.651  0.00  0.00    +0.064 HD
ATOM     52  H   UNL     1       6.961   1.133   0.787  0.00  0.00    +0.063 HD
ATOM     53  H   UNL     1       8.301  -2.695  -0.677  0.00  0.00    +0.063 HD
ATOM     54  H   UNL     1       6.248  -3.743   0.187  0.00  0.00    +0.064 HD
BRANCH  48  55
ATOM     55  C   UNL     1       8.971  -0.095  -0.513  0.00  0.00    +0.099 C 
ATOM     56  N   UNL     1       9.936   0.398  -0.920  0.00  0.00    -0.191 NA
ENDBRANCH  48  55
ENDBRANCH  42  45
ENDBRANCH  40  42
ENDBRANCH  34  40
ENDBRANCH   1  30
BRANCH   1  57
ATOM     57  C   UNL     1      -0.066   2.753  -2.320  0.00  0.00    -0.045 C 
ATOM     58  H   UNL     1      -0.415   2.247  -3.244  0.00  0.00    +0.027 HD
ATOM     59  H   UNL     1       0.980   3.092  -2.488  0.00  0.00    +0.027 HD
BRANCH  57  60
ATOM     60  C   UNL     1      -0.933   3.992  -2.094  0.00  0.00    -0.064 C 
ATOM     61  H   UNL     1      -0.841   4.673  -2.966  0.00  0.00    +0.023 HD
ATOM     62  H   UNL     1      -0.602   4.537  -1.184  0.00  0.00    +0.023 HD
ATOM     63  H   UNL     1      -2.000   3.707  -1.983  0.00  0.00    +0.023 HD
ENDBRANCH  57  60
ENDBRANCH   1  57
TORSDOF 9
