REMARK  Name = 
REMARK  14 active torsions:
REMARK  status: ('A' for Active; 'I' for Inactive)
REMARK    1  A    between atoms: C_1  and  C_2
REMARK    2  A    between atoms: C_2  and  C_3
REMARK    3  A    between atoms: C_2  and  C_4
REMARK    4  A    between atoms: C_4  and  C_5
REMARK    5  A    between atoms: C_5  and  N_6
REMARK    6  A    between atoms: N_6  and  C_7
REMARK    7  A    between atoms: N_6  and  S_33
REMARK    8  A    between atoms: C_7  and  C_8
REMARK    9  A    between atoms: C_8  and  O_9
REMARK   10  A    between atoms: C_8  and  C_10
REMARK   11  A    between atoms: C_24  and  C_25
REMARK   12  A    between atoms: C_25  and  C_26
REMARK   13  A    between atoms: C_25  and  C_27
REMARK   14  A    between atoms: S_33  and  C_36
REMARK                            x       y       z     vdW  Elec       q    Type
REMARK                         _______ _______ _______ _____ _____    ______ ____
ROOT
ATOM      1  C   UNL     1       0.441   2.002   0.011  0.00  0.00    +0.054 C 
ATOM      2  C   UNL     1       1.129   3.185  -0.703  0.00  0.00    -0.007 C 
ATOM      3  C   UNL     1       2.620   2.974  -0.798  0.00  0.00    -0.045 A 
ATOM      4  C   UNL     1       3.200   2.534  -1.998  0.00  0.00    -0.055 A 
ATOM      5  C   UNL     1       4.574   2.287  -2.067  0.00  0.00    -0.020 A 
ATOM      6  C   UNL     1       5.389   2.452  -0.941  0.00  0.00    +0.121 A 
ATOM      7  O   UNL     1       6.759   2.166  -1.078  0.00  0.00    -0.492 OA
ATOM      8  C   UNL     1       7.702   1.981  -0.018  0.00  0.00    +0.090 C 
ATOM      9  C   UNL     1       7.869   0.496   0.342  0.00  0.00    -0.018 C 
ATOM     10  C   UNL     1       6.564  -0.183   0.797  0.00  0.00    -0.042 C 
ATOM     11  C   UNL     1       5.864  -0.923  -0.357  0.00  0.00    +0.024 C 
ATOM     12  C   UNL     1       4.449  -1.298  -0.014  0.00  0.00    +0.214 C 
ATOM     13  O   UNL     1       4.163  -1.648   1.163  0.00  0.00    -0.276 OA
ATOM     14  N   UNL     1       3.450  -1.322  -1.048  0.00  0.00    -0.304 N 
ATOM     15  C   UNL     1       2.008  -1.488  -0.821  0.00  0.00    +0.102 C 
ATOM     16  C   UNL     1       1.485  -0.327  -0.011  0.00  0.00    +0.234 C 
ATOM     17  O   UNL     1       1.676  -0.292   1.236  0.00  0.00    -0.274 OA
ATOM     18  N   UNL     1       0.802   0.751  -0.667  0.00  0.00    -0.308 N 
ATOM     19  C   UNL     1       4.805   2.897   0.263  0.00  0.00    -0.020 A 
ATOM     20  C   UNL     1       3.432   3.151   0.331  0.00  0.00    -0.055 A 
ATOM     21  H   UNL     1       0.794   1.993   1.066  0.00  0.00    +0.053 HD
ATOM     22  H   UNL     1       0.937   4.127  -0.143  0.00  0.00    +0.033 HD
ATOM     23  H   UNL     1       0.695   3.315  -1.719  0.00  0.00    +0.033 HD
ATOM     24  H   UNL     1       2.589   2.373  -2.877  0.00  0.00    +0.062 HD
ATOM     25  H   UNL     1       5.006   1.944  -2.999  0.00  0.00    +0.065 HD
ATOM     26  H   UNL     1       8.686   2.350  -0.375  0.00  0.00    +0.070 HD
ATOM     27  H   UNL     1       7.460   2.582   0.879  0.00  0.00    +0.070 HD
ATOM     28  H   UNL     1       8.605   0.435   1.173  0.00  0.00    +0.030 HD
ATOM     29  H   UNL     1       8.315  -0.048  -0.520  0.00  0.00    +0.030 HD
ATOM     30  H   UNL     1       6.808  -0.930   1.585  0.00  0.00    +0.027 HD
ATOM     31  H   UNL     1       5.883   0.559   1.262  0.00  0.00    +0.027 HD
ATOM     32  H   UNL     1       5.859  -0.289  -1.267  0.00  0.00    +0.036 HD
ATOM     33  H   UNL     1       6.429  -1.849  -0.598  0.00  0.00    +0.036 HD
ATOM     34  H   UNL     1       3.760  -1.143  -2.031  0.00  0.00    +0.149 HD
ATOM     35  H   UNL     1       1.510  -1.455  -1.816  0.00  0.00    +0.060 HD
ATOM     36  H   UNL     1       0.572   0.659  -1.683  0.00  0.00    +0.149 HD
ATOM     37  H   UNL     1       5.388   3.052   1.157  0.00  0.00    +0.065 HD
ATOM     38  H   UNL     1       2.999   3.479   1.268  0.00  0.00    +0.062 HD
ENDROOT
BRANCH  15  39
ATOM     39  C   UNL     1       1.658  -2.869  -0.195  0.00  0.00    -0.020 C 
ATOM     40  H   UNL     1       2.061  -2.931   0.838  0.00  0.00    +0.032 HD
BRANCH  39  41
ATOM     41  C   UNL     1       2.274  -4.017  -1.010  0.00  0.00    -0.061 C 
ATOM     42  H   UNL     1       1.917  -3.985  -2.062  0.00  0.00    +0.023 HD
ATOM     43  H   UNL     1       3.382  -3.950  -1.003  0.00  0.00    +0.023 HD
ATOM     44  H   UNL     1       1.995  -4.997  -0.567  0.00  0.00    +0.023 HD
ENDBRANCH  39  41
BRANCH  39  45
ATOM     45  C   UNL     1       0.135  -3.064  -0.106  0.00  0.00    -0.061 C 
ATOM     46  H   UNL     1      -0.101  -4.061   0.325  0.00  0.00    +0.023 HD
ATOM     47  H   UNL     1      -0.331  -2.991  -1.112  0.00  0.00    +0.023 HD
ATOM     48  H   UNL     1      -0.319  -2.298   0.555  0.00  0.00    +0.023 HD
ENDBRANCH  39  45
ENDBRANCH  15  39
BRANCH   1  49
ATOM     49  C   UNL     1      -1.096   2.163   0.018  0.00  0.00    +0.088 C 
ATOM     50  H   UNL     1      -1.454   2.105  -1.037  0.00  0.00    +0.063 HD
BRANCH  49  51
ATOM     51  C   UNL     1      -1.766   1.048   0.843  0.00  0.00    +0.048 C 
ATOM     52  H   UNL     1      -1.499   1.201   1.913  0.00  0.00    +0.047 HD
ATOM     53  H   UNL     1      -1.347   0.061   0.556  0.00  0.00    +0.047 HD
BRANCH  51  54
ATOM     54  N   UNL     1      -3.228   1.085   0.637  0.00  0.00    -0.174 NA
BRANCH  54  55
ATOM     55  S   UNL     1      -4.113   0.982   2.143  0.00  0.00    +0.061 S 
ATOM     56  O   UNL     1      -3.820   2.200   2.974  0.00  0.00    -0.153 OA
ATOM     57  O   UNL     1      -3.681  -0.237   2.910  0.00  0.00    -0.153 OA
BRANCH  55  58
ATOM     58  C   UNL     1      -5.848   0.929   1.832  0.00  0.00    +0.105 A 
ATOM     59  C   UNL     1      -6.451   1.962   1.102  0.00  0.00    -0.035 A 
ATOM     60  C   UNL     1      -7.822   1.925   0.833  0.00  0.00    -0.060 A 
ATOM     61  C   UNL     1      -8.597   0.857   1.294  0.00  0.00    -0.062 A 
ATOM     62  C   UNL     1      -8.001  -0.174   2.026  0.00  0.00    -0.060 A 
ATOM     63  C   UNL     1      -6.630  -0.140   2.297  0.00  0.00    -0.035 A 
ATOM     64  H   UNL     1      -5.857   2.791   0.736  0.00  0.00    +0.064 HD
ATOM     65  H   UNL     1      -8.284   2.723   0.266  0.00  0.00    +0.062 HD
ATOM     66  H   UNL     1      -9.659   0.828   1.085  0.00  0.00    +0.062 HD
ATOM     67  H   UNL     1      -8.602  -1.001   2.383  0.00  0.00    +0.062 HD
ATOM     68  H   UNL     1      -6.182  -0.946   2.862  0.00  0.00    +0.064 HD
ENDBRANCH  55  58
ENDBRANCH  54  55
BRANCH  54  69
ATOM     69  C   UNL     1      -3.702   0.136  -0.396  0.00  0.00    +0.021 C 
ATOM     70  H   UNL     1      -4.718   0.445  -0.719  0.00  0.00    +0.044 HD
ATOM     71  H   UNL     1      -3.054   0.227  -1.296  0.00  0.00    +0.044 HD
BRANCH  69  72
ATOM     72  C   UNL     1      -3.745  -1.341   0.064  0.00  0.00    -0.036 C 
ATOM     73  H   UNL     1      -2.842  -1.578   0.662  0.00  0.00    +0.028 HD
ATOM     74  H   UNL     1      -4.626  -1.501   0.720  0.00  0.00    +0.028 HD
BRANCH  72  75
ATOM     75  C   UNL     1      -3.818  -2.330  -1.120  0.00  0.00    -0.046 C 
ATOM     76  H   UNL     1      -2.955  -2.146  -1.797  0.00  0.00    +0.030 HD
BRANCH  75  77
ATOM     77  C   UNL     1      -3.708  -3.773  -0.608  0.00  0.00    -0.063 C 
ATOM     78  H   UNL     1      -2.759  -3.912  -0.049  0.00  0.00    +0.023 HD
ATOM     79  H   UNL     1      -4.558  -4.016   0.065  0.00  0.00    +0.023 HD
ATOM     80  H   UNL     1      -3.709  -4.484  -1.461  0.00  0.00    +0.023 HD
ENDBRANCH  75  77
BRANCH  75  81
ATOM     81  C   UNL     1      -5.115  -2.161  -1.926  0.00  0.00    -0.063 C 
ATOM     82  H   UNL     1      -5.173  -2.929  -2.727  0.00  0.00    +0.023 HD
ATOM     83  H   UNL     1      -5.142  -1.167  -2.418  0.00  0.00    +0.023 HD
ATOM     84  H   UNL     1      -6.003  -2.264  -1.266  0.00  0.00    +0.023 HD
ENDBRANCH  75  81
ENDBRANCH  72  75
ENDBRANCH  69  72
ENDBRANCH  54  69
ENDBRANCH  51  54
ENDBRANCH  49  51
BRANCH  49  85
ATOM     85  O   UNL     1      -1.437   3.411   0.569  0.00  0.00    -0.389 OA
ATOM     86  H   UNL     1      -2.348   3.634   0.241  0.00  0.00    +0.210 HD
ENDBRANCH  49  85
ENDBRANCH   1  49
TORSDOF 14
