REMARK  Name = 
REMARK  17 active torsions:
REMARK  status: ('A' for Active; 'I' for Inactive)
REMARK    1  A    between atoms: C_1  and  O_2
REMARK    2  A    between atoms: O_2  and  C_3
REMARK    3  A    between atoms: C_6  and  S_7
REMARK    4  A    between atoms: S_7  and  N_10
REMARK    5  A    between atoms: N_10  and  C_11
REMARK    6  A    between atoms: N_10  and  C_15
REMARK    7  A    between atoms: C_11  and  C_12
REMARK    8  A    between atoms: C_12  and  C_13
REMARK    9  A    between atoms: C_12  and  C_14
REMARK   10  A    between atoms: C_15  and  C_16
REMARK   11  A    between atoms: C_16  and  O_17
REMARK   12  A    between atoms: C_16  and  C_18
REMARK   13  A    between atoms: C_18  and  C_19
REMARK   14  A    between atoms: C_18  and  N_26
REMARK   15  A    between atoms: C_19  and  C_20
REMARK   16  A    between atoms: C_27  and  O_29
REMARK   17  A    between atoms: O_29  and  C_30
REMARK                            x       y       z     vdW  Elec       q    Type
REMARK                         _______ _______ _______ _____ _____    ______ ____
ROOT
ATOM      1  C   UNL     1       1.233  -0.407  -2.946  0.00  0.00    +0.057 C 
ATOM      2  H   UNL     1       1.513   0.579  -3.378  0.00  0.00    +0.053 HD
ENDROOT
BRANCH   1   3
ATOM      3  N   UNL     1       2.215  -0.808  -1.929  0.00  0.00    -0.275 N 
ATOM      4  C   UNL     1       3.296   0.027  -1.499  0.00  0.00    +0.401 C 
ATOM      5  O   UNL     1       3.514   1.136  -2.061  0.00  0.00    -0.226 OA
ATOM      6  H   UNL     1       2.061  -1.698  -1.405  0.00  0.00    +0.152 HD
BRANCH   4   7
ATOM      7  O   UNL     1       4.098  -0.396  -0.434  0.00  0.00    -0.444 OA
BRANCH   7   8
ATOM      8  C   UNL     1       5.130   0.411   0.136  0.00  0.00    +0.135 C 
ATOM      9  C   UNL     1       6.013  -0.405   1.050  0.00  0.00    +0.088 C 
ATOM     10  O   UNL     1       6.580   0.461   2.002  0.00  0.00    -0.347 OA
ATOM     11  C   UNL     1       5.704   1.557   2.157  0.00  0.00    +0.165 C 
ATOM     12  O   UNL     1       5.171   1.528   3.473  0.00  0.00    -0.351 OA
ATOM     13  C   UNL     1       4.186   2.532   3.620  0.00  0.00    +0.051 C 
ATOM     14  C   UNL     1       2.925   2.193   2.805  0.00  0.00    -0.029 C 
ATOM     15  C   UNL     1       3.235   1.197   1.681  0.00  0.00    -0.040 C 
ATOM     16  C   UNL     1       4.616   1.496   1.061  0.00  0.00    +0.049 C 
ATOM     17  H   UNL     1       5.761   0.857  -0.666  0.00  0.00    +0.076 HD
ATOM     18  H   UNL     1       6.818  -0.902   0.468  0.00  0.00    +0.060 HD
ATOM     19  H   UNL     1       5.421  -1.187   1.576  0.00  0.00    +0.060 HD
ATOM     20  H   UNL     1       6.306   2.484   2.023  0.00  0.00    +0.091 HD
ATOM     21  H   UNL     1       4.585   3.529   3.323  0.00  0.00    +0.056 HD
ATOM     22  H   UNL     1       3.914   2.607   4.695  0.00  0.00    +0.056 HD
ATOM     23  H   UNL     1       2.509   3.128   2.369  0.00  0.00    +0.029 HD
ATOM     24  H   UNL     1       2.150   1.756   3.471  0.00  0.00    +0.029 HD
ATOM     25  H   UNL     1       2.443   1.265   0.909  0.00  0.00    +0.027 HD
ATOM     26  H   UNL     1       3.223   0.165   2.099  0.00  0.00    +0.027 HD
ATOM     27  H   UNL     1       4.562   2.464   0.514  0.00  0.00    +0.039 HD
ENDBRANCH   7   8
ENDBRANCH   4   7
ENDBRANCH   1   3
BRANCH   1  28
ATOM     28  C   UNL     1       1.248  -1.415  -4.119  0.00  0.00    -0.007 C 
ATOM     29  H   UNL     1       2.265  -1.417  -4.570  0.00  0.00    +0.033 HD
ATOM     30  H   UNL     1       0.563  -1.066  -4.922  0.00  0.00    +0.033 HD
BRANCH  28  31
ATOM     31  C   UNL     1       0.881  -2.825  -3.714  0.00  0.00    -0.046 A 
ATOM     32  C   UNL     1       1.873  -3.718  -3.275  0.00  0.00    -0.059 A 
ATOM     33  C   UNL     1       1.530  -5.014  -2.878  0.00  0.00    -0.062 A 
ATOM     34  C   UNL     1       0.197  -5.430  -2.920  0.00  0.00    -0.062 A 
ATOM     35  C   UNL     1      -0.795  -4.551  -3.362  0.00  0.00    -0.062 A 
ATOM     36  C   UNL     1      -0.456  -3.254  -3.761  0.00  0.00    -0.059 A 
ATOM     37  H   UNL     1       2.911  -3.409  -3.235  0.00  0.00    +0.062 HD
ATOM     38  H   UNL     1       2.299  -5.696  -2.537  0.00  0.00    +0.062 HD
ATOM     39  H   UNL     1      -0.067  -6.433  -2.611  0.00  0.00    +0.062 HD
ATOM     40  H   UNL     1      -1.827  -4.874  -3.396  0.00  0.00    +0.062 HD
ATOM     41  H   UNL     1      -1.236  -2.587  -4.103  0.00  0.00    +0.062 HD
ENDBRANCH  28  31
ENDBRANCH   1  28
BRANCH   1  42
ATOM     42  C   UNL     1      -0.166  -0.252  -2.298  0.00  0.00    +0.088 C 
ATOM     43  H   UNL     1      -0.411  -1.208  -1.779  0.00  0.00    +0.063 HD
BRANCH  42  44
ATOM     44  C   UNL     1      -0.182   0.891  -1.266  0.00  0.00    +0.048 C 
ATOM     45  H   UNL     1       0.733   0.838  -0.642  0.00  0.00    +0.047 HD
ATOM     46  H   UNL     1      -0.107   1.864  -1.803  0.00  0.00    +0.047 HD
BRANCH  44  47
ATOM     47  N   UNL     1      -1.406   0.795  -0.437  0.00  0.00    -0.174 NA
BRANCH  47  48
ATOM     48  C   UNL     1      -1.100   0.631   1.000  0.00  0.00    +0.023 C 
ATOM     49  H   UNL     1      -0.320   1.361   1.318  0.00  0.00    +0.045 HD
ATOM     50  H   UNL     1      -2.002   0.844   1.616  0.00  0.00    +0.045 HD
BRANCH  48  51
ATOM     51  C   UNL     1      -0.647  -0.811   1.314  0.00  0.00    -0.032 C 
ATOM     52  H   UNL     1       0.227  -1.073   0.678  0.00  0.00    +0.031 HD
BRANCH  51  53
ATOM     53  C   UNL     1      -1.771  -1.817   1.028  0.00  0.00    -0.061 C 
ATOM     54  H   UNL     1      -2.663  -1.597   1.655  0.00  0.00    +0.023 HD
ATOM     55  H   UNL     1      -1.425  -2.849   1.245  0.00  0.00    +0.023 HD
ATOM     56  H   UNL     1      -2.069  -1.775  -0.040  0.00  0.00    +0.023 HD
ENDBRANCH  51  53
BRANCH  51  57
ATOM     57  C   UNL     1      -0.199  -0.921   2.776  0.00  0.00    -0.061 C 
ATOM     58  H   UNL     1       0.150  -1.954   2.994  0.00  0.00    +0.023 HD
ATOM     59  H   UNL     1      -1.036  -0.672   3.463  0.00  0.00    +0.023 HD
ATOM     60  H   UNL     1       0.645  -0.227   2.970  0.00  0.00    +0.023 HD
ENDBRANCH  51  57
ENDBRANCH  48  51
ENDBRANCH  47  48
BRANCH  47  61
ATOM     61  S   UNL     1      -2.429   2.193  -0.669  0.00  0.00    +0.061 S 
ATOM     62  O   UNL     1      -1.779   3.397  -0.045  0.00  0.00    -0.153 OA
ATOM     63  O   UNL     1      -2.636   2.447  -2.136  0.00  0.00    -0.153 OA
BRANCH  61  67
ATOM     64  C   UNL     1      -6.495   1.389   1.265  0.00  0.00    +0.120 A 
ATOM     65  C   UNL     1      -5.887   2.652   1.396  0.00  0.00    -0.018 A 
ATOM     66  C   UNL     1      -4.646   2.902   0.801  0.00  0.00    -0.032 A 
ATOM     67  C   UNL     1      -3.998   1.897   0.073  0.00  0.00    +0.106 A 
ATOM     68  C   UNL     1      -4.604   0.642  -0.064  0.00  0.00    -0.032 A 
ATOM     69  C   UNL     1      -5.843   0.390   0.531  0.00  0.00    -0.018 A 
ATOM     70  H   UNL     1      -6.364   3.446   1.954  0.00  0.00    +0.065 HD
ATOM     71  H   UNL     1      -4.194   3.879   0.912  0.00  0.00    +0.064 HD
ATOM     72  H   UNL     1      -4.115  -0.142  -0.628  0.00  0.00    +0.064 HD
ATOM     73  H   UNL     1      -6.300  -0.585   0.421  0.00  0.00    +0.065 HD
BRANCH  64  74
ATOM     74  O   UNL     1      -7.737   1.087   1.843  0.00  0.00    -0.495 OA
BRANCH  74  75
ATOM     75  C   UNL     1      -8.508   2.003   2.614  0.00  0.00    +0.079 C 
ATOM     76  H   UNL     1      -8.779   2.886   1.998  0.00  0.00    +0.066 HD
ATOM     77  H   UNL     1      -7.937   2.323   3.511  0.00  0.00    +0.066 HD
ATOM     78  H   UNL     1      -9.440   1.502   2.947  0.00  0.00    +0.066 HD
ENDBRANCH  74  75
ENDBRANCH  64  74
ENDBRANCH  61  67
ENDBRANCH  47  61
ENDBRANCH  44  47
ENDBRANCH  42  44
BRANCH  42  79
ATOM     79  O   UNL     1      -1.122   0.013  -3.293  0.00  0.00    -0.389 OA
ATOM     80  H   UNL     1      -2.002  -0.272  -2.931  0.00  0.00    +0.210 HD
ENDBRANCH  42  79
ENDBRANCH   1  42
TORSDOF 17
