REMARK  Name = 
REMARK  21 active torsions:
REMARK  status: ('A' for Active; 'I' for Inactive)
REMARK    1  A    between atoms: C_1  and  C_2
REMARK    2  A    between atoms: C_2  and  C_3
REMARK    3  A    between atoms: C_2  and  C_4
REMARK    4  A    between atoms: C_4  and  C_5
REMARK    5  A    between atoms: C_4  and  C_6
REMARK    6  A    between atoms: C_9  and  C_11
REMARK    7  A    between atoms: C_11  and  O_12
REMARK    8  A    between atoms: C_11  and  C_13
REMARK    9  A    between atoms: C_13  and  O_14
REMARK   10  A    between atoms: C_13  and  C_15
REMARK   11  A    between atoms: C_15  and  O_16
REMARK   12  A    between atoms: C_15  and  C_17
REMARK   13  A    between atoms: C_17  and  O_18
REMARK   14  A    between atoms: C_17  and  C_31
REMARK   15  A    between atoms: O_18  and  C_19
REMARK   16  A    between atoms: C_22  and  C_23
REMARK   17  A    between atoms: C_34  and  C_36
REMARK   18  A    between atoms: C_36  and  C_37
REMARK   19  A    between atoms: C_36  and  C_38
REMARK   20  A    between atoms: C_38  and  C_39
REMARK   21  A    between atoms: C_38  and  C_40
REMARK                            x       y       z     vdW  Elec       q    Type
REMARK                         _______ _______ _______ _____ _____    ______ ____
ROOT
ATOM      1  C   UNL     1      -0.192  -0.813   1.831  0.00  0.00    +0.204 C 
ATOM      2  H   UNL     1      -0.217  -0.313   2.825  0.00  0.00    +0.086 HD
ENDROOT
BRANCH   1   3
ATOM      3  C   UNL     1      -1.125  -1.999   1.841  0.00  0.00    +0.263 C 
ATOM      4  O   UNL     1      -1.416  -2.546   2.939  0.00  0.00    -0.271 OA
ATOM      5  N   UNL     1      -1.659  -2.507   0.607  0.00  0.00    -0.253 N 
ATOM      6  C   UNL     1      -2.800  -3.376   0.531  0.00  0.00    +0.222 C 
ATOM      7  O   UNL     1      -3.311  -3.854   1.581  0.00  0.00    -0.275 OA
ATOM      8  H   UNL     1      -1.261  -2.137  -0.286  0.00  0.00    +0.158 HD
BRANCH   6   9
ATOM      9  C   UNL     1      -3.440  -3.665  -0.808  0.00  0.00    +0.035 C 
ATOM     10  H   UNL     1      -2.755  -3.319  -1.613  0.00  0.00    +0.039 HD
BRANCH   9  11
ATOM     11  C   UNL     1      -3.599  -5.185  -0.975  0.00  0.00    -0.054 C 
ATOM     12  H   UNL     1      -2.646  -5.701  -0.729  0.00  0.00    +0.024 HD
ATOM     13  H   UNL     1      -4.398  -5.574  -0.307  0.00  0.00    +0.024 HD
ATOM     14  H   UNL     1      -3.846  -5.440  -2.026  0.00  0.00    +0.024 HD
ENDBRANCH   9  11
BRANCH   9  15
ATOM     15  C   UNL     1      -4.793  -2.903  -0.952  0.00  0.00    -0.036 C 
ATOM     16  H   UNL     1      -5.492  -3.254  -0.160  0.00  0.00    +0.030 HD
BRANCH  15  17
ATOM     17  C   UNL     1      -4.603  -1.385  -0.771  0.00  0.00    -0.062 C 
ATOM     18  H   UNL     1      -5.566  -0.850  -0.919  0.00  0.00    +0.023 HD
ATOM     19  H   UNL     1      -3.860  -0.993  -1.498  0.00  0.00    +0.023 HD
ATOM     20  H   UNL     1      -4.257  -1.155   0.257  0.00  0.00    +0.023 HD
ENDBRANCH  15  17
BRANCH  15  21
ATOM     21  C   UNL     1      -5.457  -3.166  -2.314  0.00  0.00    -0.062 C 
ATOM     22  H   UNL     1      -6.368  -2.540  -2.430  0.00  0.00    +0.023 HD
ATOM     23  H   UNL     1      -4.756  -2.931  -3.144  0.00  0.00    +0.023 HD
ATOM     24  H   UNL     1      -5.781  -4.223  -2.396  0.00  0.00    +0.023 HD
ENDBRANCH  15  21
ENDBRANCH   9  15
ENDBRANCH   6   9
ENDBRANCH   1   3
BRANCH   1  25
ATOM     25  C   UNL     1       1.260  -1.277   1.552  0.00  0.00    +0.129 C 
ATOM     26  H   UNL     1       1.272  -1.764   0.551  0.00  0.00    +0.066 HD
BRANCH  25  27
ATOM     27  O   UNL     1       1.634  -2.265   2.485  0.00  0.00    -0.385 OA
ATOM     28  H   UNL     1       1.569  -1.861   3.390  0.00  0.00    +0.210 HD
ENDBRANCH  25  27
BRANCH  25  29
ATOM     29  C   UNL     1       2.286  -0.090   1.552  0.00  0.00    +0.119 C 
ATOM     30  H   UNL     1       1.822   0.792   2.046  0.00  0.00    +0.065 HD
BRANCH  29  31
ATOM     31  O   UNL     1       3.429  -0.416   2.309  0.00  0.00    -0.386 OA
ATOM     32  H   UNL     1       3.893  -1.162   1.844  0.00  0.00    +0.210 HD
ENDBRANCH  29  31
BRANCH  29  33
ATOM     33  C   UNL     1       2.712   0.335   0.118  0.00  0.00    +0.159 C 
ATOM     34  H   UNL     1       3.120  -0.559  -0.403  0.00  0.00    +0.072 HD
BRANCH  33  38
ATOM     35  C   UNL     1       6.260   1.955  -0.053  0.00  0.00    +0.222 C 
ATOM     36  O   UNL     1       6.054   3.180   0.165  0.00  0.00    -0.275 OA
ATOM     37  N   UNL     1       5.164   1.023  -0.074  0.00  0.00    -0.254 N 
ATOM     38  C   UNL     1       3.794   1.390   0.160  0.00  0.00    +0.250 C 
ATOM     39  O   UNL     1       3.490   2.580   0.448  0.00  0.00    -0.272 OA
ATOM     40  H   UNL     1       5.375   0.018  -0.261  0.00  0.00    +0.158 HD
BRANCH  35  41
ATOM     41  C   UNL     1       7.676   1.483  -0.295  0.00  0.00    +0.035 C 
ATOM     42  H   UNL     1       8.354   2.363  -0.214  0.00  0.00    +0.039 HD
BRANCH  41  43
ATOM     43  C   UNL     1       8.077   0.501   0.818  0.00  0.00    -0.054 C 
ATOM     44  H   UNL     1       9.175   0.342   0.821  0.00  0.00    +0.024 HD
ATOM     45  H   UNL     1       7.571  -0.479   0.686  0.00  0.00    +0.024 HD
ATOM     46  H   UNL     1       7.804   0.913   1.814  0.00  0.00    +0.024 HD
ENDBRANCH  41  43
BRANCH  41  47
ATOM     47  C   UNL     1       7.842   0.874  -1.721  0.00  0.00    -0.036 C 
ATOM     48  H   UNL     1       7.189  -0.022  -1.817  0.00  0.00    +0.030 HD
BRANCH  47  49
ATOM     49  C   UNL     1       9.289   0.423  -1.985  0.00  0.00    -0.062 C 
ATOM     50  H   UNL     1       9.403   0.080  -3.036  0.00  0.00    +0.023 HD
ATOM     51  H   UNL     1       9.558  -0.435  -1.335  0.00  0.00    +0.023 HD
ATOM     52  H   UNL     1      10.000   1.257  -1.804  0.00  0.00    +0.023 HD
ENDBRANCH  47  49
BRANCH  47  53
ATOM     53  C   UNL     1       7.423   1.878  -2.809  0.00  0.00    -0.062 C 
ATOM     54  H   UNL     1       7.572   1.440  -3.819  0.00  0.00    +0.023 HD
ATOM     55  H   UNL     1       6.347   2.134  -2.717  0.00  0.00    +0.023 HD
ATOM     56  H   UNL     1       8.023   2.811  -2.732  0.00  0.00    +0.023 HD
ENDBRANCH  47  53
ENDBRANCH  41  47
ENDBRANCH  35  41
ENDBRANCH  33  38
BRANCH  33  57
ATOM     57  O   UNL     1       1.617   0.788  -0.639  0.00  0.00    -0.380 OA
ATOM     58  H   UNL     1       1.247   1.591  -0.188  0.00  0.00    +0.211 HD
ENDBRANCH  33  57
ENDBRANCH  29  33
ENDBRANCH  25  29
ENDBRANCH   1  25
BRANCH   1  59
ATOM     59  O   UNL     1      -0.606   0.118   0.830  0.00  0.00    -0.477 OA
BRANCH  59  60
ATOM     60  C   UNL     1      -1.834   0.798   0.807  0.00  0.00    +0.122 A 
ATOM     61  C   UNL     1      -2.185   1.487  -0.358  0.00  0.00    -0.019 A 
ATOM     62  C   UNL     1      -3.418   2.136  -0.457  0.00  0.00    -0.049 A 
ATOM     63  C   UNL     1      -4.326   2.112   0.618  0.00  0.00    +0.001 A 
ATOM     64  C   UNL     1      -3.954   1.453   1.803  0.00  0.00    -0.049 A 
ATOM     65  C   UNL     1      -2.722   0.800   1.898  0.00  0.00    -0.019 A 
ATOM     66  H   UNL     1      -1.503   1.505  -1.199  0.00  0.00    +0.065 HD
ATOM     67  H   UNL     1      -3.650   2.667  -1.371  0.00  0.00    +0.063 HD
ATOM     68  H   UNL     1      -4.626   1.423   2.651  0.00  0.00    +0.063 HD
ATOM     69  H   UNL     1      -2.476   0.292   2.820  0.00  0.00    +0.065 HD
BRANCH  63  70
ATOM     70  C   UNL     1      -5.649   2.778   0.527  0.00  0.00    +0.071 A 
ATOM     71  C   UNL     1      -6.335   2.893  -0.697  0.00  0.00    -0.036 A 
ATOM     72  C   UNL     1      -7.582   3.520  -0.731  0.00  0.00    -0.058 A 
ATOM     73  C   UNL     1      -8.142   4.020   0.445  0.00  0.00    -0.044 A 
ATOM     74  C   UNL     1      -7.444   3.881   1.645  0.00  0.00    +0.028 A 
ATOM     75  N   UNL     1      -6.231   3.268   1.659  0.00  0.00    -0.255 NA
ATOM     76  H   UNL     1      -5.928   2.485  -1.612  0.00  0.00    +0.064 HD
ATOM     77  H   UNL     1      -8.117   3.611  -1.667  0.00  0.00    +0.062 HD
ATOM     78  H   UNL     1      -9.109   4.506   0.427  0.00  0.00    +0.063 HD
ATOM     79  H   UNL     1      -7.868   4.258   2.566  0.00  0.00    +0.083 HD
ENDBRANCH  63  70
ENDBRANCH  59  60
ENDBRANCH   1  59
TORSDOF 21
