REMARK  Name = 
REMARK  16 active torsions:
REMARK  status: ('A' for Active; 'I' for Inactive)
REMARK    1  A    between atoms: C_1  and  C_2
REMARK    2  A    between atoms: C_3  and  O_4
REMARK    3  A    between atoms: C_8  and  C_9
REMARK    4  A    between atoms: N_11  and  C_12
REMARK    5  A    between atoms: C_12  and  C_13
REMARK    6  A    between atoms: C_12  and  C_35
REMARK    7  A    between atoms: C_13  and  C_14
REMARK    8  A    between atoms: C_14  and  O_15
REMARK    9  A    between atoms: C_14  and  C_16
REMARK   10  A    between atoms: C_16  and  C_17
REMARK   11  A    between atoms: C_16  and  N_24
REMARK   12  A    between atoms: C_17  and  C_18
REMARK   13  A    between atoms: C_25  and  C_27
REMARK   14  A    between atoms: C_31  and  O_32
REMARK   15  A    between atoms: C_33  and  C_34
REMARK   16  A    between atoms: C_35  and  C_36
REMARK                            x       y       z     vdW  Elec       q    Type
REMARK                         _______ _______ _______ _____ _____    ______ ____
ROOT
ATOM      1  C   UNL     1       0.012  -0.115   0.360  0.00  0.00    +0.076 C 
ATOM      2  H   UNL     1      -0.385  -0.765  -0.449  0.00  0.00    +0.061 HD
ENDROOT
BRANCH   1   3
ATOM      3  C   UNL     1       1.357  -0.703   0.850  0.00  0.00    -0.006 C 
ATOM      4  H   UNL     1       1.158  -1.647   1.385  0.00  0.00    +0.031 HD
ATOM      5  H   UNL     1       1.830  -0.018   1.587  0.00  0.00    +0.031 HD
BRANCH   3   6
ATOM      6  C   UNL     1       2.332  -0.994  -0.318  0.00  0.00    +0.030 C 
ATOM      7  H   UNL     1       1.757  -1.467  -1.146  0.00  0.00    +0.050 HD
BRANCH   6  10
ATOM      8  C   UNL     1       3.491   0.360  -2.128  0.00  0.00    +0.245 C 
ATOM      9  O   UNL     1       3.386  -0.599  -2.942  0.00  0.00    -0.270 OA
ATOM     10  N   UNL     1       2.933   0.251  -0.809  0.00  0.00    -0.308 N 
ATOM     11  H   UNL     1       3.123   1.021  -0.128  0.00  0.00    +0.149 HD
BRANCH   8  17
ATOM     12  C   UNL     1       3.754   2.880  -2.360  0.00  0.00    +0.003 A 
ATOM     13  C   UNL     1       4.604   3.980  -2.639  0.00  0.00    +0.120 A 
ATOM     14  C   UNL     1       5.884   3.760  -3.156  0.00  0.00    -0.020 A 
ATOM     15  C   UNL     1       6.346   2.465  -3.378  0.00  0.00    -0.058 A 
ATOM     16  C   UNL     1       5.543   1.373  -3.057  0.00  0.00    -0.049 A 
ATOM     17  C   UNL     1       4.258   1.561  -2.523  0.00  0.00    +0.043 A 
ATOM     18  H   UNL     1       6.527   4.601  -3.384  0.00  0.00    +0.065 HD
ATOM     19  H   UNL     1       7.338   2.307  -3.779  0.00  0.00    +0.062 HD
ATOM     20  H   UNL     1       5.936   0.373  -3.203  0.00  0.00    +0.063 HD
BRANCH  12  21
ATOM     21  C   UNL     1       2.328   3.123  -1.925  0.00  0.00    -0.036 C 
ATOM     22  H   UNL     1       1.684   2.241  -2.117  0.00  0.00    +0.028 HD
ATOM     23  H   UNL     1       1.877   3.949  -2.512  0.00  0.00    +0.028 HD
ATOM     24  H   UNL     1       2.301   3.374  -0.845  0.00  0.00    +0.028 HD
ENDBRANCH  12  21
BRANCH  13  25
ATOM     25  O   UNL     1       4.213   5.301  -2.409  0.00  0.00    -0.506 OA
ATOM     26  H   UNL     1       3.346   5.555  -1.953  0.00  0.00    +0.292 HD
ENDBRANCH  13  25
ENDBRANCH   8  17
ENDBRANCH   6  10
BRANCH   6  27
ATOM     27  C   UNL     1       3.453  -1.964   0.114  0.00  0.00    -0.009 C 
ATOM     28  H   UNL     1       3.952  -1.576   1.030  0.00  0.00    +0.033 HD
ATOM     29  H   UNL     1       4.233  -2.008  -0.677  0.00  0.00    +0.033 HD
BRANCH  27  30
ATOM     30  C   UNL     1       2.934  -3.363   0.338  0.00  0.00    -0.046 A 
ATOM     31  C   UNL     1       2.560  -4.161  -0.757  0.00  0.00    -0.059 A 
ATOM     32  C   UNL     1       2.034  -5.440  -0.552  0.00  0.00    -0.062 A 
ATOM     33  C   UNL     1       1.878  -5.932   0.746  0.00  0.00    -0.062 A 
ATOM     34  C   UNL     1       2.250  -5.148   1.841  0.00  0.00    -0.062 A 
ATOM     35  C   UNL     1       2.777  -3.868   1.640  0.00  0.00    -0.059 A 
ATOM     36  H   UNL     1       2.669  -3.788  -1.768  0.00  0.00    +0.062 HD
ATOM     37  H   UNL     1       1.743  -6.047  -1.399  0.00  0.00    +0.062 HD
ATOM     38  H   UNL     1       1.466  -6.921   0.904  0.00  0.00    +0.062 HD
ATOM     39  H   UNL     1       2.126  -5.529   2.846  0.00  0.00    +0.062 HD
ATOM     40  H   UNL     1       3.049  -3.267   2.499  0.00  0.00    +0.062 HD
ENDBRANCH  27  30
ENDBRANCH   6  27
ENDBRANCH   3   6
ENDBRANCH   1   3
BRANCH   1  41
ATOM     41  O   UNL     1       0.222   1.158  -0.199  0.00  0.00    -0.390 OA
ATOM     42  H   UNL     1       0.547   1.754   0.525  0.00  0.00    +0.210 HD
ENDBRANCH   1  41
BRANCH   1  43
ATOM     43  C   UNL     1      -1.063  -0.032   1.486  0.00  0.00    +0.053 C 
ATOM     44  H   UNL     1      -0.609   0.540   2.326  0.00  0.00    +0.053 HD
BRANCH  43  45
ATOM     45  N   UNL     1      -2.237   0.709   1.003  0.00  0.00    -0.306 N 
ATOM     46  C   UNL     1      -3.141   1.384   1.892  0.00  0.00    +0.245 C 
ATOM     47  O   UNL     1      -2.956   1.330   3.139  0.00  0.00    -0.270 OA
ATOM     48  H   UNL     1      -2.392   0.797  -0.027  0.00  0.00    +0.149 HD
BRANCH  46  49
ATOM     49  C   UNL     1      -4.307   2.127   1.357  0.00  0.00    +0.043 A 
ATOM     50  C   UNL     1      -5.062   1.534   0.331  0.00  0.00    -0.049 A 
ATOM     51  C   UNL     1      -6.212   2.151  -0.156  0.00  0.00    -0.058 A 
ATOM     52  C   UNL     1      -6.639   3.359   0.388  0.00  0.00    -0.020 A 
ATOM     53  C   UNL     1      -5.910   3.978   1.406  0.00  0.00    +0.120 A 
ATOM     54  C   UNL     1      -4.703   3.394   1.870  0.00  0.00    +0.003 A 
ATOM     55  H   UNL     1      -4.779   0.574  -0.081  0.00  0.00    +0.063 HD
ATOM     56  H   UNL     1      -6.788   1.678  -0.941  0.00  0.00    +0.062 HD
ATOM     57  H   UNL     1      -7.551   3.814   0.022  0.00  0.00    +0.065 HD
BRANCH  54  58
ATOM     58  C   UNL     1      -3.855   4.129   2.884  0.00  0.00    -0.036 C 
ATOM     59  H   UNL     1      -3.840   5.217   2.670  0.00  0.00    +0.028 HD
ATOM     60  H   UNL     1      -4.254   3.953   3.905  0.00  0.00    +0.028 HD
ATOM     61  H   UNL     1      -2.793   3.814   2.843  0.00  0.00    +0.028 HD
ENDBRANCH  54  58
BRANCH  53  62
ATOM     62  O   UNL     1      -6.420   5.165   1.939  0.00  0.00    -0.506 OA
ATOM     63  H   UNL     1      -6.025   5.630   2.746  0.00  0.00    +0.292 HD
ENDBRANCH  53  62
ENDBRANCH  46  49
ENDBRANCH  43  45
BRANCH  43  64
ATOM     64  C   UNL     1      -1.506  -1.410   2.045  0.00  0.00    -0.007 C 
ATOM     65  H   UNL     1      -2.294  -1.252   2.813  0.00  0.00    +0.033 HD
ATOM     66  H   UNL     1      -0.671  -1.891   2.595  0.00  0.00    +0.033 HD
BRANCH  64  67
ATOM     67  C   UNL     1      -2.042  -2.345   0.987  0.00  0.00    -0.046 A 
ATOM     68  C   UNL     1      -1.216  -3.331   0.419  0.00  0.00    -0.059 A 
ATOM     69  C   UNL     1      -1.709  -4.175  -0.580  0.00  0.00    -0.062 A 
ATOM     70  C   UNL     1      -3.030  -4.047  -1.017  0.00  0.00    -0.062 A 
ATOM     71  C   UNL     1      -3.862  -3.077  -0.451  0.00  0.00    -0.062 A 
ATOM     72  C   UNL     1      -3.372  -2.231   0.549  0.00  0.00    -0.059 A 
ATOM     73  H   UNL     1      -0.193  -3.450   0.748  0.00  0.00    +0.062 HD
ATOM     74  H   UNL     1      -1.066  -4.930  -1.016  0.00  0.00    +0.062 HD
ATOM     75  H   UNL     1      -3.410  -4.701  -1.791  0.00  0.00    +0.062 HD
ATOM     76  H   UNL     1      -4.887  -2.982  -0.785  0.00  0.00    +0.062 HD
ATOM     77  H   UNL     1      -4.031  -1.492   0.986  0.00  0.00    +0.062 HD
ENDBRANCH  64  67
ENDBRANCH  43  64
ENDBRANCH   1  43
TORSDOF 16
