REMARK  Name = 
REMARK  10 active torsions:
REMARK  status: ('A' for Active; 'I' for Inactive)
REMARK    1  A    between atoms: C_1  and  C_2
REMARK    2  A    between atoms: C_2  and  C_3
REMARK    3  A    between atoms: C_3  and  C_4
REMARK    4  A    between atoms: C_3  and  C_25
REMARK    5  A    between atoms: C_8  and  N_9
REMARK    6  A    between atoms: C_10  and  C_12
REMARK    7  A    between atoms: C_12  and  C_13
REMARK    8  A    between atoms: C_13  and  N_14
REMARK    9  A    between atoms: N_14  and  C_15
REMARK   10  A    between atoms: C_26  and  O_27
REMARK                            x       y       z     vdW  Elec       q    Type
REMARK                         _______ _______ _______ _____ _____    ______ ____
ROOT
ATOM      1  C   UNL     1      -2.835  -1.649  -0.456  0.00  0.00    -0.038 A 
ATOM      2  C   UNL     1      -2.691  -2.159  -1.758  0.00  0.00    -0.058 A 
ATOM      3  C   UNL     1      -1.432  -2.500  -2.255  0.00  0.00    -0.060 A 
ATOM      4  C   UNL     1      -0.297  -2.339  -1.460  0.00  0.00    -0.040 A 
ATOM      5  C   UNL     1      -0.414  -1.844  -0.150  0.00  0.00    +0.034 A 
ATOM      6  C   UNL     1      -1.679  -1.482   0.336  0.00  0.00    -0.037 A 
ATOM      7  H   UNL     1      -3.558  -2.283  -2.396  0.00  0.00    +0.062 HD
ATOM      8  H   UNL     1      -1.334  -2.878  -3.264  0.00  0.00    +0.062 HD
ATOM      9  H   UNL     1       0.672  -2.573  -1.880  0.00  0.00    +0.064 HD
ATOM     10  H   UNL     1      -1.748  -1.074   1.335  0.00  0.00    +0.064 HD
ENDROOT
BRANCH   5  11
ATOM     11  N   UNL     1       0.744  -1.636   0.677  0.00  0.00    -0.285 N 
ATOM     12  C   UNL     1       1.904  -2.482   0.666  0.00  0.00    +0.218 C 
ATOM     13  O   UNL     1       1.882  -3.597   0.078  0.00  0.00    -0.275 OA
ATOM     14  H   UNL     1       0.712  -0.864   1.381  0.00  0.00    +0.155 HD
BRANCH  12  15
ATOM     15  C   UNL     1       3.157  -2.042   1.362  0.00  0.00    +0.037 C 
ATOM     16  H   UNL     1       2.894  -1.574   2.335  0.00  0.00    +0.037 HD
ATOM     17  H   UNL     1       3.799  -2.927   1.570  0.00  0.00    +0.037 HD
BRANCH  15  18
ATOM     18  C   UNL     1       3.926  -1.041   0.499  0.00  0.00    +0.005 C 
ATOM     19  H   UNL     1       4.193  -1.520  -0.470  0.00  0.00    +0.043 HD
ATOM     20  H   UNL     1       3.267  -0.166   0.298  0.00  0.00    +0.043 HD
BRANCH  18  21
ATOM     21  N   UNL     1       5.138  -0.604   1.202  0.00  0.00    -0.306 NA
ATOM     22  H   UNL     1       5.788  -1.422   1.292  0.00  0.00    +0.123 HD
BRANCH  21  23
ATOM     23  C   UNL     1       5.816   0.481   0.474  0.00  0.00    +0.052 C 
ATOM     24  C   UNL     1       6.599  -0.027  -0.719  0.00  0.00    -0.062 C 
ATOM     25  C   UNL     1       7.904   0.203  -0.591  0.00  0.00    -0.056 C 
ATOM     26  C   UNL     1       8.125   0.877   0.670  0.00  0.00    -0.020 A 
ATOM     27  C   UNL     1       9.319   1.326   1.233  0.00  0.00    -0.054 A 
ATOM     28  C   UNL     1       9.264   1.968   2.482  0.00  0.00    -0.061 A 
ATOM     29  C   UNL     1       8.028   2.149   3.134  0.00  0.00    -0.061 A 
ATOM     30  C   UNL     1       6.840   1.688   2.543  0.00  0.00    -0.056 A 
ATOM     31  C   UNL     1       6.919   1.049   1.304  0.00  0.00    -0.020 A 
ATOM     32  H   UNL     1       5.111   1.290   0.178  0.00  0.00    +0.055 HD
ATOM     33  H   UNL     1       6.161  -0.510  -1.582  0.00  0.00    +0.059 HD
ATOM     34  H   UNL     1       8.659  -0.065  -1.317  0.00  0.00    +0.062 HD
ATOM     35  H   UNL     1      10.263   1.185   0.723  0.00  0.00    +0.062 HD
ATOM     36  H   UNL     1      10.175   2.326   2.943  0.00  0.00    +0.062 HD
ATOM     37  H   UNL     1       7.994   2.646   4.095  0.00  0.00    +0.062 HD
ATOM     38  H   UNL     1       5.886   1.825   3.037  0.00  0.00    +0.062 HD
ENDBRANCH  21  23
ENDBRANCH  18  21
ENDBRANCH  15  18
ENDBRANCH  12  15
ENDBRANCH   5  11
BRANCH   1  39
ATOM     39  C   UNL     1      -4.229  -1.256   0.019  0.00  0.00    +0.019 C 
ATOM     40  H   UNL     1      -4.886  -2.095  -0.301  0.00  0.00    +0.040 HD
BRANCH  39  41
ATOM     41  C   UNL     1      -4.683   0.038  -0.657  0.00  0.00    +0.087 A 
ATOM     42  C   UNL     1      -3.963   1.244  -0.500  0.00  0.00    +0.292 A 
ATOM     43  O   UNL     1      -4.375   2.362  -1.089  0.00  0.00    -0.425 OA
ATOM     44  C   UNL     1      -5.463   2.423  -1.845  0.00  0.00    +0.143 A 
ATOM     45  C   UNL     1      -5.830   3.640  -2.432  0.00  0.00    -0.019 A 
ATOM     46  C   UNL     1      -6.975   3.717  -3.229  0.00  0.00    -0.058 A 
ATOM     47  C   UNL     1      -7.759   2.581  -3.443  0.00  0.00    -0.061 A 
ATOM     48  C   UNL     1      -7.402   1.360  -2.861  0.00  0.00    -0.047 A 
ATOM     49  C   UNL     1      -6.250   1.271  -2.057  0.00  0.00    +0.064 A 
ATOM     50  C   UNL     1      -5.850   0.068  -1.452  0.00  0.00    +0.200 A 
ATOM     51  O   UNL     1      -6.535  -0.978  -1.619  0.00  0.00    -0.287 OA
ATOM     52  H   UNL     1      -5.228   4.525  -2.270  0.00  0.00    +0.065 HD
ATOM     53  H   UNL     1      -7.256   4.660  -3.681  0.00  0.00    +0.062 HD
ATOM     54  H   UNL     1      -8.645   2.645  -4.061  0.00  0.00    +0.062 HD
ATOM     55  H   UNL     1      -8.025   0.493  -3.042  0.00  0.00    +0.063 HD
BRANCH  42  56
ATOM     56  O   UNL     1      -2.808   1.286   0.275  0.00  0.00    -0.480 OA
ATOM     57  H   UNL     1      -2.290   2.148   0.387  0.00  0.00    +0.295 HD
ENDBRANCH  42  56
ENDBRANCH  39  41
BRANCH  39  58
ATOM     58  C   UNL     1      -4.388  -1.187   1.558  0.00  0.00    -0.045 C 
ATOM     59  H   UNL     1      -3.962  -2.110   2.010  0.00  0.00    +0.027 HD
ATOM     60  H   UNL     1      -3.843  -0.316   1.978  0.00  0.00    +0.027 HD
BRANCH  58  61
ATOM     61  C   UNL     1      -5.853  -1.088   1.983  0.00  0.00    -0.064 C 
ATOM     62  H   UNL     1      -5.918  -1.091   3.091  0.00  0.00    +0.023 HD
ATOM     63  H   UNL     1      -6.431  -1.953   1.592  0.00  0.00    +0.023 HD
ATOM     64  H   UNL     1      -6.305  -0.145   1.608  0.00  0.00    +0.023 HD
ENDBRANCH  58  61
ENDBRANCH  39  58
ENDBRANCH   1  39
TORSDOF 10
