REMARK  Name = 
REMARK  16 active torsions:
REMARK  status: ('A' for Active; 'I' for Inactive)
REMARK    1  A    between atoms: C_1  and  C_2
REMARK    2  A    between atoms: C_3  and  O_4
REMARK    3  A    between atoms: C_8  and  C_9
REMARK    4  A    between atoms: N_11  and  C_12
REMARK    5  A    between atoms: C_12  and  C_13
REMARK    6  A    between atoms: C_12  and  C_35
REMARK    7  A    between atoms: C_13  and  C_14
REMARK    8  A    between atoms: C_14  and  O_15
REMARK    9  A    between atoms: C_14  and  C_16
REMARK   10  A    between atoms: C_16  and  C_17
REMARK   11  A    between atoms: C_16  and  N_24
REMARK   12  A    between atoms: C_17  and  C_18
REMARK   13  A    between atoms: C_25  and  C_27
REMARK   14  A    between atoms: C_31  and  O_32
REMARK   15  A    between atoms: C_33  and  C_34
REMARK   16  A    between atoms: C_35  and  C_36
REMARK                            x       y       z     vdW  Elec       q    Type
REMARK                         _______ _______ _______ _____ _____    ______ ____
ROOT
ATOM      1  C   UNL     1      -0.871  -0.482   0.198  0.00  0.00    +0.076 C 
ATOM      2  H   UNL     1      -1.190  -0.489   1.263  0.00  0.00    +0.061 HD
ENDROOT
BRANCH   1   3
ATOM      3  C   UNL     1      -0.069   0.828  -0.025  0.00  0.00    -0.006 C 
ATOM      4  H   UNL     1      -0.778   1.684   0.005  0.00  0.00    +0.031 HD
ATOM      5  H   UNL     1       0.400   0.815  -1.030  0.00  0.00    +0.031 HD
BRANCH   3   6
ATOM      6  C   UNL     1       1.018   1.061   1.047  0.00  0.00    +0.030 C 
ATOM      7  H   UNL     1       0.535   0.973   2.045  0.00  0.00    +0.050 HD
BRANCH   6  10
ATOM      8  C   UNL     1       2.293  -0.993   1.863  0.00  0.00    +0.245 C 
ATOM      9  O   UNL     1       1.643  -1.013   2.944  0.00  0.00    -0.270 OA
ATOM     10  N   UNL     1       2.089   0.066   0.914  0.00  0.00    -0.308 N 
ATOM     11  H   UNL     1       2.604   0.021   0.006  0.00  0.00    +0.149 HD
BRANCH   8  17
ATOM     12  C   UNL     1       4.543  -1.922   1.126  0.00  0.00    +0.003 A 
ATOM     13  C   UNL     1       5.319  -3.043   0.761  0.00  0.00    +0.120 A 
ATOM     14  C   UNL     1       4.785  -4.333   0.866  0.00  0.00    -0.020 A 
ATOM     15  C   UNL     1       3.484  -4.521   1.326  0.00  0.00    -0.058 A 
ATOM     16  C   UNL     1       2.696  -3.422   1.665  0.00  0.00    -0.049 A 
ATOM     17  C   UNL     1       3.201  -2.117   1.549  0.00  0.00    +0.043 A 
ATOM     18  H   UNL     1       5.383  -5.194   0.593  0.00  0.00    +0.065 HD
ATOM     19  H   UNL     1       3.079  -5.522   1.407  0.00  0.00    +0.062 HD
ATOM     20  H   UNL     1       1.678  -3.589   1.995  0.00  0.00    +0.063 HD
BRANCH  12  21
ATOM     21  C   UNL     1       5.158  -0.547   1.047  0.00  0.00    -0.036 C 
ATOM     22  H   UNL     1       6.237  -0.582   1.306  0.00  0.00    +0.028 HD
ATOM     23  H   UNL     1       5.053  -0.153   0.015  0.00  0.00    +0.028 HD
ATOM     24  H   UNL     1       4.685   0.153   1.766  0.00  0.00    +0.028 HD
ENDBRANCH  12  21
BRANCH  13  25
ATOM     25  O   UNL     1       6.624  -2.872   0.296  0.00  0.00    -0.506 OA
ATOM     26  H   UNL     1       7.201  -3.660   0.028  0.00  0.00    +0.292 HD
ENDBRANCH  13  25
ENDBRANCH   8  17
ENDBRANCH   6  10
BRANCH   6  27
ATOM     27  C   UNL     1       1.598   2.492   0.984  0.00  0.00    -0.009 C 
ATOM     28  H   UNL     1       2.309   2.624   1.829  0.00  0.00    +0.033 HD
ATOM     29  H   UNL     1       0.781   3.227   1.153  0.00  0.00    +0.033 HD
BRANCH  27  30
ATOM     30  C   UNL     1       2.297   2.808  -0.318  0.00  0.00    -0.046 A 
ATOM     31  C   UNL     1       3.681   2.601  -0.448  0.00  0.00    -0.059 A 
ATOM     32  C   UNL     1       4.322   2.862  -1.663  0.00  0.00    -0.062 A 
ATOM     33  C   UNL     1       3.590   3.338  -2.753  0.00  0.00    -0.062 A 
ATOM     34  C   UNL     1       2.216   3.560  -2.629  0.00  0.00    -0.062 A 
ATOM     35  C   UNL     1       1.571   3.300  -1.416  0.00  0.00    -0.059 A 
ATOM     36  H   UNL     1       4.261   2.239   0.390  0.00  0.00    +0.062 HD
ATOM     37  H   UNL     1       5.388   2.695  -1.758  0.00  0.00    +0.062 HD
ATOM     38  H   UNL     1       4.088   3.538  -3.693  0.00  0.00    +0.062 HD
ATOM     39  H   UNL     1       1.651   3.932  -3.474  0.00  0.00    +0.062 HD
ATOM     40  H   UNL     1       0.506   3.476  -1.336  0.00  0.00    +0.062 HD
ENDBRANCH  27  30
ENDBRANCH   6  27
ENDBRANCH   3   6
ENDBRANCH   1   3
BRANCH   1  41
ATOM     41  O   UNL     1      -0.089  -1.639   0.019  0.00  0.00    -0.390 OA
ATOM     42  H   UNL     1       0.536  -1.490  -0.734  0.00  0.00    +0.210 HD
ENDBRANCH   1  41
BRANCH   1  43
ATOM     43  C   UNL     1      -2.168  -0.560  -0.659  0.00  0.00    +0.053 C 
ATOM     44  H   UNL     1      -2.601  -1.577  -0.533  0.00  0.00    +0.053 HD
BRANCH  43  45
ATOM     45  N   UNL     1      -3.146   0.412  -0.155  0.00  0.00    -0.306 N 
ATOM     46  C   UNL     1      -3.879   0.209   1.064  0.00  0.00    +0.245 C 
ATOM     47  O   UNL     1      -3.846  -0.912   1.641  0.00  0.00    -0.270 OA
ATOM     48  H   UNL     1      -3.313   1.294  -0.692  0.00  0.00    +0.149 HD
BRANCH  46  49
ATOM     49  C   UNL     1      -4.640   1.326   1.670  0.00  0.00    +0.043 A 
ATOM     50  C   UNL     1      -4.025   2.588   1.727  0.00  0.00    -0.049 A 
ATOM     51  C   UNL     1      -4.657   3.659   2.353  0.00  0.00    -0.058 A 
ATOM     52  C   UNL     1      -5.902   3.483   2.950  0.00  0.00    -0.020 A 
ATOM     53  C   UNL     1      -6.540   2.240   2.912  0.00  0.00    +0.120 A 
ATOM     54  C   UNL     1      -5.937   1.153   2.227  0.00  0.00    +0.003 A 
ATOM     55  H   UNL     1      -3.037   2.739   1.310  0.00  0.00    +0.063 HD
ATOM     56  H   UNL     1      -4.170   4.624   2.396  0.00  0.00    +0.062 HD
ATOM     57  H   UNL     1      -6.371   4.316   3.459  0.00  0.00    +0.065 HD
BRANCH  54  58
ATOM     58  C   UNL     1      -6.681  -0.155   2.091  0.00  0.00    -0.036 C 
ATOM     59  H   UNL     1      -6.320  -0.752   1.230  0.00  0.00    +0.028 HD
ATOM     60  H   UNL     1      -6.571  -0.748   3.023  0.00  0.00    +0.028 HD
ATOM     61  H   UNL     1      -7.757   0.024   1.887  0.00  0.00    +0.028 HD
ENDBRANCH  54  58
BRANCH  53  62
ATOM     62  O   UNL     1      -7.766   2.119   3.571  0.00  0.00    -0.506 OA
ATOM     63  H   UNL     1      -8.254   1.241   3.687  0.00  0.00    +0.292 HD
ENDBRANCH  53  62
ENDBRANCH  46  49
ENDBRANCH  43  45
BRANCH  43  64
ATOM     64  C   UNL     1      -1.961  -0.332  -2.179  0.00  0.00    -0.007 C 
ATOM     65  H   UNL     1      -1.566   0.691  -2.361  0.00  0.00    +0.033 HD
ATOM     66  H   UNL     1      -2.954  -0.367  -2.678  0.00  0.00    +0.033 HD
BRANCH  64  67
ATOM     67  C   UNL     1      -1.084  -1.368  -2.837  0.00  0.00    -0.046 A 
ATOM     68  C   UNL     1      -1.496  -2.710  -2.904  0.00  0.00    -0.059 A 
ATOM     69  C   UNL     1      -0.677  -3.671  -3.504  0.00  0.00    -0.062 A 
ATOM     70  C   UNL     1       0.554  -3.299  -4.050  0.00  0.00    -0.062 A 
ATOM     71  C   UNL     1       0.965  -1.965  -4.004  0.00  0.00    -0.062 A 
ATOM     72  C   UNL     1       0.149  -1.000  -3.406  0.00  0.00    -0.059 A 
ATOM     73  H   UNL     1      -2.450  -3.013  -2.491  0.00  0.00    +0.062 HD
ATOM     74  H   UNL     1      -0.997  -4.704  -3.547  0.00  0.00    +0.062 HD
ATOM     75  H   UNL     1       1.188  -4.045  -4.513  0.00  0.00    +0.062 HD
ATOM     76  H   UNL     1       1.917  -1.677  -4.432  0.00  0.00    +0.062 HD
ATOM     77  H   UNL     1       0.483   0.029  -3.381  0.00  0.00    +0.062 HD
ENDBRANCH  64  67
ENDBRANCH  43  64
ENDBRANCH   1  43
TORSDOF 16
