REMARK  Name = 
REMARK  18 active torsions:
REMARK  status: ('A' for Active; 'I' for Inactive)
REMARK    1  A    between atoms: C_1  and  C_2
REMARK    2  A    between atoms: N_4  and  C_5
REMARK    3  A    between atoms: C_5  and  C_6
REMARK    4  A    between atoms: C_5  and  C_10
REMARK    5  A    between atoms: C_6  and  C_7
REMARK    6  A    between atoms: N_12  and  C_13
REMARK    7  A    between atoms: C_13  and  C_14
REMARK    8  A    between atoms: C_13  and  C_22
REMARK    9  A    between atoms: C_14  and  S_15
REMARK   10  A    between atoms: S_15  and  C_16
REMARK   11  A    between atoms: C_22  and  O_23
REMARK   12  A    between atoms: C_22  and  C_24
REMARK   13  A    between atoms: C_24  and  C_25
REMARK   14  A    between atoms: C_30  and  C_31
REMARK   15  A    between atoms: N_33  and  C_34
REMARK   16  A    between atoms: C_34  and  C_35
REMARK   17  A    between atoms: C_34  and  C_36
REMARK   18  A    between atoms: C_34  and  C_37
REMARK                            x       y       z     vdW  Elec       q    Type
REMARK                         _______ _______ _______ _____ _____    ______ ____
ROOT
ATOM      1  C   UNL     1      -1.042   1.218  -0.087  0.00  0.00    +0.059 C 
ATOM      2  H   UNL     1      -0.829   0.802  -1.096  0.00  0.00    +0.053 HD
ENDROOT
BRANCH   1   5
ATOM      3  C   UNL     1      -2.119  -1.074   0.248  0.00  0.00    +0.234 C 
ATOM      4  O   UNL     1      -1.629  -1.502  -0.834  0.00  0.00    -0.274 OA
ATOM      5  N   UNL     1      -1.871   0.275   0.674  0.00  0.00    -0.308 N 
ATOM      6  H   UNL     1      -2.228   0.578   1.609  0.00  0.00    +0.149 HD
BRANCH   3   7
ATOM      7  C   UNL     1      -2.915  -2.004   1.122  0.00  0.00    +0.108 C 
ATOM      8  H   UNL     1      -3.534  -1.405   1.826  0.00  0.00    +0.060 HD
BRANCH   7  11
ATOM      9  C   UNL     1      -5.008  -2.314  -0.280  0.00  0.00    +0.211 C 
ATOM     10  O   UNL     1      -5.349  -1.117  -0.078  0.00  0.00    -0.276 OA
ATOM     11  N   UNL     1      -3.799  -2.831   0.294  0.00  0.00    -0.304 N 
ATOM     12  H   UNL     1      -3.522  -3.812   0.061  0.00  0.00    +0.149 HD
BRANCH   9  13
ATOM     13  C   UNL     1      -5.852  -3.186  -1.150  0.00  0.00    +0.012 C 
ATOM     14  H   UNL     1      -6.026  -4.160  -0.647  0.00  0.00    +0.032 HD
ATOM     15  H   UNL     1      -5.331  -3.360  -2.115  0.00  0.00    +0.032 HD
ATOM     16  H   UNL     1      -6.834  -2.706  -1.349  0.00  0.00    +0.032 HD
ENDBRANCH   9  13
ENDBRANCH   7  11
BRANCH   7  17
ATOM     17  C   UNL     1      -1.958  -2.878   1.952  0.00  0.00    +0.051 C 
ATOM     18  H   UNL     1      -1.256  -2.226   2.517  0.00  0.00    +0.038 HD
ATOM     19  H   UNL     1      -1.347  -3.522   1.282  0.00  0.00    +0.038 HD
BRANCH  17  20
ATOM     20  C   UNL     1      -2.710  -3.727   2.935  0.00  0.00    +0.213 C 
ATOM     21  N   UNL     1      -2.986  -5.098   2.649  0.00  0.00    -0.329 N 
ATOM     22  O   UNL     1      -3.127  -3.218   4.010  0.00  0.00    -0.276 OA
ATOM     23  H   UNL     1      -3.524  -5.680   3.329  0.00  0.00    +0.145 HD
ATOM     24  H   UNL     1      -2.654  -5.538   1.762  0.00  0.00    +0.145 HD
ENDBRANCH  17  20
ENDBRANCH   7  17
ENDBRANCH   3   7
ENDBRANCH   1   5
BRANCH   1  25
ATOM     25  C   UNL     1      -1.836   2.526  -0.270  0.00  0.00    +0.019 C 
ATOM     26  H   UNL     1      -1.816   3.122   0.669  0.00  0.00    +0.040 HD
ATOM     27  H   UNL     1      -2.896   2.279  -0.497  0.00  0.00    +0.040 HD
BRANCH  25  28
ATOM     28  S   UNL     1      -1.192   3.522  -1.660  0.00  0.00    -0.123 S 
BRANCH  28  29
ATOM     29  C   UNL     1      -2.360   4.859  -1.402  0.00  0.00    +0.008 A 
ATOM     30  C   UNL     1      -3.599   4.844  -2.053  0.00  0.00    -0.048 A 
ATOM     31  C   UNL     1      -4.509   5.887  -1.851  0.00  0.00    -0.061 A 
ATOM     32  C   UNL     1      -4.180   6.948  -1.001  0.00  0.00    -0.062 A 
ATOM     33  C   UNL     1      -2.941   6.966  -0.353  0.00  0.00    -0.061 A 
ATOM     34  C   UNL     1      -2.030   5.923  -0.553  0.00  0.00    -0.048 A 
ATOM     35  H   UNL     1      -3.860   4.025  -2.712  0.00  0.00    +0.063 HD
ATOM     36  H   UNL     1      -5.468   5.873  -2.354  0.00  0.00    +0.062 HD
ATOM     37  H   UNL     1      -4.884   7.755  -0.846  0.00  0.00    +0.062 HD
ATOM     38  H   UNL     1      -2.687   7.787   0.305  0.00  0.00    +0.062 HD
ATOM     39  H   UNL     1      -1.073   5.942  -0.048  0.00  0.00    +0.063 HD
ENDBRANCH  28  29
ENDBRANCH  25  28
ENDBRANCH   1  25
BRANCH   1  40
ATOM     40  C   UNL     1       0.302   1.448   0.659  0.00  0.00    +0.078 C 
ATOM     41  H   UNL     1       0.069   1.893   1.651  0.00  0.00    +0.062 HD
BRANCH  40  42
ATOM     42  C   UNL     1       1.062   0.122   0.898  0.00  0.00    +0.001 C 
ATOM     43  H   UNL     1       1.170  -0.429  -0.058  0.00  0.00    +0.034 HD
ATOM     44  H   UNL     1       0.453  -0.535   1.556  0.00  0.00    +0.034 HD
BRANCH  42  45
ATOM     45  C   UNL     1       2.396   0.344   1.583  0.00  0.00    -0.033 A 
ATOM     46  C   UNL     1       2.387   0.755   2.929  0.00  0.00    -0.058 A 
ATOM     47  C   UNL     1       3.580   0.928   3.632  0.00  0.00    -0.061 A 
ATOM     48  C   UNL     1       4.801   0.684   3.007  0.00  0.00    -0.061 A 
ATOM     49  C   UNL     1       4.833   0.268   1.675  0.00  0.00    -0.049 A 
ATOM     50  C   UNL     1       3.643   0.099   0.946  0.00  0.00    +0.040 A 
ATOM     51  H   UNL     1       1.450   0.931   3.442  0.00  0.00    +0.062 HD
ATOM     52  H   UNL     1       3.557   1.245   4.667  0.00  0.00    +0.062 HD
ATOM     53  H   UNL     1       5.725   0.816   3.555  0.00  0.00    +0.062 HD
ATOM     54  H   UNL     1       5.794   0.089   1.207  0.00  0.00    +0.063 HD
BRANCH  50  55
ATOM     55  C   UNL     1       3.748  -0.343  -0.461  0.00  0.00    +0.245 C 
ATOM     56  O   UNL     1       3.158   0.310  -1.361  0.00  0.00    -0.270 OA
ATOM     57  N   UNL     1       4.547  -1.494  -0.794  0.00  0.00    -0.307 N 
ATOM     58  H   UNL     1       4.997  -2.000   0.003  0.00  0.00    +0.150 HD
BRANCH  57  59
ATOM     59  C   UNL     1       4.737  -2.026  -2.158  0.00  0.00    +0.026 C 
BRANCH  59  60
ATOM     60  C   UNL     1       5.645  -3.272  -2.089  0.00  0.00    -0.044 C 
ATOM     61  H   UNL     1       6.633  -3.007  -1.653  0.00  0.00    +0.025 HD
ATOM     62  H   UNL     1       5.182  -4.055  -1.450  0.00  0.00    +0.025 HD
ATOM     63  H   UNL     1       5.812  -3.700  -3.101  0.00  0.00    +0.025 HD
ENDBRANCH  59  60
BRANCH  59  64
ATOM     64  C   UNL     1       3.381  -2.443  -2.762  0.00  0.00    -0.044 C 
ATOM     65  H   UNL     1       2.857  -3.147  -2.079  0.00  0.00    +0.025 HD
ATOM     66  H   UNL     1       3.528  -2.946  -3.742  0.00  0.00    +0.025 HD
ATOM     67  H   UNL     1       2.723  -1.568  -2.931  0.00  0.00    +0.025 HD
ENDBRANCH  59  64
BRANCH  59  68
ATOM     68  C   UNL     1       5.421  -0.973  -3.051  0.00  0.00    -0.044 C 
ATOM     69  H   UNL     1       4.766  -0.093  -3.219  0.00  0.00    +0.025 HD
ATOM     70  H   UNL     1       5.664  -1.402  -4.047  0.00  0.00    +0.025 HD
ATOM     71  H   UNL     1       6.363  -0.622  -2.579  0.00  0.00    +0.025 HD
ENDBRANCH  59  68
ENDBRANCH  57  59
ENDBRANCH  50  55
ENDBRANCH  42  45
ENDBRANCH  40  42
BRANCH  40  72
ATOM     72  O   UNL     1       1.119   2.360  -0.033  0.00  0.00    -0.390 OA
ATOM     73  H   UNL     1       1.277   1.989  -0.939  0.00  0.00    +0.210 HD
ENDBRANCH  40  72
ENDBRANCH   1  40
TORSDOF 18
