REMARK  Name = 
REMARK  21 active torsions:
REMARK  status: ('A' for Active; 'I' for Inactive)
REMARK    1  A    between atoms: C_1  and  C_2
REMARK    2  A    between atoms: C_2  and  C_3
REMARK    3  A    between atoms: C_2  and  C_4
REMARK    4  A    between atoms: C_4  and  C_5
REMARK    5  A    between atoms: C_4  and  C_6
REMARK    6  A    between atoms: C_9  and  C_11
REMARK    7  A    between atoms: C_11  and  O_12
REMARK    8  A    between atoms: C_11  and  C_13
REMARK    9  A    between atoms: C_13  and  O_14
REMARK   10  A    between atoms: C_13  and  C_15
REMARK   11  A    between atoms: C_15  and  O_16
REMARK   12  A    between atoms: C_15  and  C_17
REMARK   13  A    between atoms: C_17  and  O_18
REMARK   14  A    between atoms: C_17  and  C_31
REMARK   15  A    between atoms: O_18  and  C_19
REMARK   16  A    between atoms: C_22  and  C_23
REMARK   17  A    between atoms: C_34  and  C_36
REMARK   18  A    between atoms: C_36  and  C_37
REMARK   19  A    between atoms: C_36  and  C_38
REMARK   20  A    between atoms: C_38  and  C_39
REMARK   21  A    between atoms: C_38  and  C_40
REMARK                            x       y       z     vdW  Elec       q    Type
REMARK                         _______ _______ _______ _____ _____    ______ ____
ROOT
ATOM      1  C   UNL     1      -0.809  -1.586   1.179  0.00  0.00    +0.204 C 
ATOM      2  H   UNL     1      -0.441  -2.615   1.386  0.00  0.00    +0.086 HD
ENDROOT
BRANCH   1   3
ATOM      3  C   UNL     1      -0.312  -1.137  -0.175  0.00  0.00    +0.263 C 
ATOM      4  O   UNL     1       0.599  -1.800  -0.741  0.00  0.00    -0.271 OA
ATOM      5  N   UNL     1      -0.843   0.048  -0.789  0.00  0.00    -0.253 N 
ATOM      6  C   UNL     1      -0.327   0.616  -2.006  0.00  0.00    +0.222 C 
ATOM      7  O   UNL     1       0.486  -0.032  -2.719  0.00  0.00    -0.275 OA
ATOM      8  H   UNL     1      -1.611   0.554  -0.295  0.00  0.00    +0.158 HD
BRANCH   6   9
ATOM      9  C   UNL     1      -0.742   2.002  -2.442  0.00  0.00    +0.035 C 
ATOM     10  H   UNL     1      -0.224   2.235  -3.401  0.00  0.00    +0.039 HD
BRANCH   9  11
ATOM     11  C   UNL     1      -2.252   2.010  -2.732  0.00  0.00    -0.054 C 
ATOM     12  H   UNL     1      -2.840   1.980  -1.790  0.00  0.00    +0.024 HD
ATOM     13  H   UNL     1      -2.532   1.134  -3.356  0.00  0.00    +0.024 HD
ATOM     14  H   UNL     1      -2.533   2.920  -3.302  0.00  0.00    +0.024 HD
ENDBRANCH   9  11
BRANCH   9  15
ATOM     15  C   UNL     1      -0.323   3.075  -1.391  0.00  0.00    -0.036 C 
ATOM     16  H   UNL     1      -0.824   2.854  -0.422  0.00  0.00    +0.030 HD
BRANCH  15  17
ATOM     17  C   UNL     1       1.197   3.054  -1.149  0.00  0.00    -0.062 C 
ATOM     18  H   UNL     1       1.479   3.825  -0.400  0.00  0.00    +0.023 HD
ATOM     19  H   UNL     1       1.747   3.256  -2.094  0.00  0.00    +0.023 HD
ATOM     20  H   UNL     1       1.522   2.072  -0.750  0.00  0.00    +0.023 HD
ENDBRANCH  15  17
BRANCH  15  21
ATOM     21  C   UNL     1      -0.743   4.491  -1.818  0.00  0.00    -0.062 C 
ATOM     22  H   UNL     1      -0.354   4.727  -2.832  0.00  0.00    +0.023 HD
ATOM     23  H   UNL     1      -1.848   4.590  -1.818  0.00  0.00    +0.023 HD
ATOM     24  H   UNL     1      -0.350   5.245  -1.102  0.00  0.00    +0.023 HD
ENDBRANCH  15  21
ENDBRANCH   9  15
ENDBRANCH   6   9
ENDBRANCH   1   3
BRANCH   1  25
ATOM     25  C   UNL     1      -0.304  -0.676   2.323  0.00  0.00    +0.129 C 
ATOM     26  H   UNL     1      -0.658  -1.155   3.267  0.00  0.00    +0.066 HD
BRANCH  25  27
ATOM     27  O   UNL     1      -0.875   0.604   2.201  0.00  0.00    -0.385 OA
ATOM     28  H   UNL     1      -1.002   0.959   3.120  0.00  0.00    +0.210 HD
ENDBRANCH  25  27
BRANCH  25  29
ATOM     29  C   UNL     1       1.243  -0.573   2.367  0.00  0.00    +0.119 C 
ATOM     30  H   UNL     1       1.665  -1.597   2.225  0.00  0.00    +0.065 HD
BRANCH  29  31
ATOM     31  O   UNL     1       1.678   0.278   1.332  0.00  0.00    -0.386 OA
ATOM     32  H   UNL     1       2.545  -0.076   1.001  0.00  0.00    +0.210 HD
ENDBRANCH  29  31
BRANCH  29  33
ATOM     33  C   UNL     1       1.742  -0.025   3.729  0.00  0.00    +0.159 C 
ATOM     34  H   UNL     1       1.265   0.962   3.911  0.00  0.00    +0.072 HD
BRANCH  33  38
ATOM     35  C   UNL     1       5.073   1.576   2.662  0.00  0.00    +0.222 C 
ATOM     36  O   UNL     1       5.895   0.619   2.702  0.00  0.00    -0.275 OA
ATOM     37  N   UNL     1       3.767   1.434   3.241  0.00  0.00    -0.254 N 
ATOM     38  C   UNL     1       3.236   0.184   3.706  0.00  0.00    +0.250 C 
ATOM     39  O   UNL     1       4.009  -0.763   4.018  0.00  0.00    -0.272 OA
ATOM     40  H   UNL     1       3.115   2.249   3.177  0.00  0.00    +0.158 HD
BRANCH  35  41
ATOM     41  C   UNL     1       5.423   2.851   1.927  0.00  0.00    +0.035 C 
ATOM     42  H   UNL     1       5.047   3.690   2.554  0.00  0.00    +0.039 HD
BRANCH  41  43
ATOM     43  C   UNL     1       6.948   3.042   1.816  0.00  0.00    -0.054 C 
ATOM     44  H   UNL     1       7.190   4.028   1.370  0.00  0.00    +0.024 HD
ATOM     45  H   UNL     1       7.404   3.015   2.829  0.00  0.00    +0.024 HD
ATOM     46  H   UNL     1       7.413   2.242   1.204  0.00  0.00    +0.024 HD
ENDBRANCH  41  43
BRANCH  41  47
ATOM     47  C   UNL     1       4.678   2.915   0.559  0.00  0.00    -0.036 C 
ATOM     48  H   UNL     1       3.598   2.742   0.761  0.00  0.00    +0.030 HD
BRANCH  47  49
ATOM     49  C   UNL     1       4.776   4.304  -0.088  0.00  0.00    -0.062 C 
ATOM     50  H   UNL     1       4.466   5.090   0.633  0.00  0.00    +0.023 HD
ATOM     51  H   UNL     1       4.100   4.360  -0.967  0.00  0.00    +0.023 HD
ATOM     52  H   UNL     1       5.810   4.515  -0.434  0.00  0.00    +0.023 HD
ENDBRANCH  47  49
BRANCH  47  53
ATOM     53  C   UNL     1       5.126   1.831  -0.434  0.00  0.00    -0.062 C 
ATOM     54  H   UNL     1       6.171   1.999  -0.767  0.00  0.00    +0.023 HD
ATOM     55  H   UNL     1       4.469   1.849  -1.330  0.00  0.00    +0.023 HD
ATOM     56  H   UNL     1       5.046   0.822   0.021  0.00  0.00    +0.023 HD
ENDBRANCH  47  53
ENDBRANCH  41  47
ENDBRANCH  35  41
ENDBRANCH  33  38
BRANCH  33  57
ATOM     57  O   UNL     1       1.377  -0.870   4.794  0.00  0.00    -0.380 OA
ATOM     58  H   UNL     1       1.709  -1.783   4.588  0.00  0.00    +0.211 HD
ENDBRANCH  33  57
ENDBRANCH  29  33
ENDBRANCH  25  29
ENDBRANCH   1  25
BRANCH   1  59
ATOM     59  O   UNL     1      -2.240  -1.598   1.197  0.00  0.00    -0.477 OA
BRANCH  59  60
ATOM     60  C   UNL     1      -3.059  -2.462   0.452  0.00  0.00    +0.122 A 
ATOM     61  C   UNL     1      -4.443  -2.267   0.505  0.00  0.00    -0.019 A 
ATOM     62  C   UNL     1      -5.308  -3.090  -0.221  0.00  0.00    -0.049 A 
ATOM     63  C   UNL     1      -4.800  -4.129  -1.023  0.00  0.00    +0.001 A 
ATOM     64  C   UNL     1      -3.409  -4.334  -1.062  0.00  0.00    -0.049 A 
ATOM     65  C   UNL     1      -2.546  -3.508  -0.336  0.00  0.00    -0.019 A 
ATOM     66  H   UNL     1      -4.851  -1.472   1.117  0.00  0.00    +0.065 HD
ATOM     67  H   UNL     1      -6.373  -2.924  -0.132  0.00  0.00    +0.063 HD
ATOM     68  H   UNL     1      -2.986  -5.127  -1.666  0.00  0.00    +0.063 HD
ATOM     69  H   UNL     1      -1.484  -3.697  -0.395  0.00  0.00    +0.065 HD
BRANCH  63  70
ATOM     70  C   UNL     1      -5.700  -5.021  -1.799  0.00  0.00    +0.071 A 
ATOM     71  C   UNL     1      -6.945  -4.576  -2.284  0.00  0.00    -0.036 A 
ATOM     72  C   UNL     1      -7.753  -5.451  -3.012  0.00  0.00    -0.058 A 
ATOM     73  C   UNL     1      -7.322  -6.755  -3.258  0.00  0.00    -0.044 A 
ATOM     74  C   UNL     1      -6.079  -7.164  -2.775  0.00  0.00    +0.028 A 
ATOM     75  N   UNL     1      -5.306  -6.298  -2.067  0.00  0.00    -0.255 NA
ATOM     76  H   UNL     1      -7.282  -3.560  -2.127  0.00  0.00    +0.064 HD
ATOM     77  H   UNL     1      -8.710  -5.117  -3.390  0.00  0.00    +0.062 HD
ATOM     78  H   UNL     1      -7.942  -7.439  -3.823  0.00  0.00    +0.063 HD
ATOM     79  H   UNL     1      -5.728  -8.170  -2.962  0.00  0.00    +0.083 HD
ENDBRANCH  63  70
ENDBRANCH  59  60
ENDBRANCH   1  59
TORSDOF 21
