REMARK  Name = 
REMARK  17 active torsions:
REMARK  status: ('A' for Active; 'I' for Inactive)
REMARK    1  A    between atoms: C_1  and  O_2
REMARK    2  A    between atoms: O_2  and  C_3
REMARK    3  A    between atoms: C_6  and  S_7
REMARK    4  A    between atoms: S_7  and  N_10
REMARK    5  A    between atoms: N_10  and  C_11
REMARK    6  A    between atoms: N_10  and  C_15
REMARK    7  A    between atoms: C_11  and  C_12
REMARK    8  A    between atoms: C_12  and  C_13
REMARK    9  A    between atoms: C_12  and  C_14
REMARK   10  A    between atoms: C_15  and  C_16
REMARK   11  A    between atoms: C_16  and  O_17
REMARK   12  A    between atoms: C_16  and  C_18
REMARK   13  A    between atoms: C_18  and  C_19
REMARK   14  A    between atoms: C_18  and  N_26
REMARK   15  A    between atoms: C_19  and  C_20
REMARK   16  A    between atoms: C_27  and  O_29
REMARK   17  A    between atoms: O_29  and  C_30
REMARK                            x       y       z     vdW  Elec       q    Type
REMARK                         _______ _______ _______ _____ _____    ______ ____
ROOT
ATOM      1  C   UNL     1       1.791  -2.633  -0.542  0.00  0.00    +0.057 C 
ATOM      2  H   UNL     1       2.302  -2.910  -1.491  0.00  0.00    +0.053 HD
ENDROOT
BRANCH   1   3
ATOM      3  N   UNL     1       2.786  -2.054   0.369  0.00  0.00    -0.275 N 
ATOM      4  C   UNL     1       3.850  -1.209  -0.081  0.00  0.00    +0.401 C 
ATOM      5  O   UNL     1       4.130  -1.133  -1.309  0.00  0.00    -0.226 OA
ATOM      6  H   UNL     1       2.624  -2.116   1.400  0.00  0.00    +0.152 HD
BRANCH   4   7
ATOM      7  O   UNL     1       4.560  -0.452   0.856  0.00  0.00    -0.444 OA
BRANCH   7   8
ATOM      8  C   UNL     1       5.516   0.544   0.488  0.00  0.00    +0.135 C 
ATOM      9  C   UNL     1       6.284   1.028   1.695  0.00  0.00    +0.088 C 
ATOM     10  O   UNL     1       6.728   2.338   1.437  0.00  0.00    -0.347 OA
ATOM     11  C   UNL     1       5.829   2.918   0.516  0.00  0.00    +0.165 C 
ATOM     12  O   UNL     1       5.128   3.967   1.168  0.00  0.00    -0.351 OA
ATOM     13  C   UNL     1       4.136   4.495   0.309  0.00  0.00    +0.051 C 
ATOM     14  C   UNL     1       2.995   3.485   0.093  0.00  0.00    -0.029 C 
ATOM     15  C   UNL     1       3.440   2.055   0.422  0.00  0.00    -0.040 C 
ATOM     16  C   UNL     1       4.894   1.821  -0.041  0.00  0.00    +0.049 C 
ATOM     17  H   UNL     1       6.237   0.132  -0.255  0.00  0.00    +0.076 HD
ATOM     18  H   UNL     1       5.634   1.036   2.598  0.00  0.00    +0.060 HD
ATOM     19  H   UNL     1       7.155   0.368   1.890  0.00  0.00    +0.060 HD
ATOM     20  H   UNL     1       6.436   3.341  -0.317  0.00  0.00    +0.091 HD
ATOM     21  H   UNL     1       4.577   4.799  -0.669  0.00  0.00    +0.056 HD
ATOM     22  H   UNL     1       3.722   5.417   0.770  0.00  0.00    +0.056 HD
ATOM     23  H   UNL     1       2.127   3.748   0.736  0.00  0.00    +0.029 HD
ATOM     24  H   UNL     1       2.659   3.535  -0.966  0.00  0.00    +0.029 HD
ATOM     25  H   UNL     1       2.756   1.338  -0.077  0.00  0.00    +0.027 HD
ATOM     26  H   UNL     1       3.364   1.899   1.521  0.00  0.00    +0.027 HD
ATOM     27  H   UNL     1       4.920   1.821  -1.154  0.00  0.00    +0.039 HD
ENDBRANCH   7   8
ENDBRANCH   4   7
ENDBRANCH   1   3
BRANCH   1  28
ATOM     28  C   UNL     1       1.248  -3.951   0.059  0.00  0.00    -0.007 C 
ATOM     29  H   UNL     1       0.813  -3.772   1.065  0.00  0.00    +0.033 HD
ATOM     30  H   UNL     1       2.103  -4.644   0.218  0.00  0.00    +0.033 HD
BRANCH  28  31
ATOM     31  C   UNL     1       0.247  -4.640  -0.835  0.00  0.00    -0.046 A 
ATOM     32  C   UNL     1       0.652  -5.193  -2.062  0.00  0.00    -0.059 A 
ATOM     33  C   UNL     1      -0.282  -5.814  -2.896  0.00  0.00    -0.062 A 
ATOM     34  C   UNL     1      -1.623  -5.892  -2.511  0.00  0.00    -0.062 A 
ATOM     35  C   UNL     1      -2.032  -5.353  -1.289  0.00  0.00    -0.062 A 
ATOM     36  C   UNL     1      -1.101  -4.732  -0.451  0.00  0.00    -0.059 A 
ATOM     37  H   UNL     1       1.688  -5.141  -2.371  0.00  0.00    +0.062 HD
ATOM     38  H   UNL     1       0.034  -6.236  -3.842  0.00  0.00    +0.062 HD
ATOM     39  H   UNL     1      -2.345  -6.373  -3.159  0.00  0.00    +0.062 HD
ATOM     40  H   UNL     1      -3.070  -5.417  -0.990  0.00  0.00    +0.062 HD
ATOM     41  H   UNL     1      -1.432  -4.321   0.494  0.00  0.00    +0.062 HD
ENDBRANCH  28  31
ENDBRANCH   1  28
BRANCH   1  42
ATOM     42  C   UNL     1       0.689  -1.583  -0.883  0.00  0.00    +0.088 C 
ATOM     43  H   UNL     1      -0.104  -2.084  -1.477  0.00  0.00    +0.063 HD
BRANCH  42  44
ATOM     44  C   UNL     1       0.065  -0.943   0.391  0.00  0.00    +0.048 C 
ATOM     45  H   UNL     1       0.787  -0.216   0.823  0.00  0.00    +0.047 HD
ATOM     46  H   UNL     1      -0.075  -1.715   1.173  0.00  0.00    +0.047 HD
BRANCH  44  47
ATOM     47  N   UNL     1      -1.231  -0.257   0.186  0.00  0.00    -0.174 NA
BRANCH  47  48
ATOM     48  C   UNL     1      -2.382  -1.154  -0.043  0.00  0.00    +0.023 C 
ATOM     49  H   UNL     1      -2.073  -2.092  -0.543  0.00  0.00    +0.045 HD
ATOM     50  H   UNL     1      -3.134  -0.682  -0.713  0.00  0.00    +0.045 HD
BRANCH  48  51
ATOM     51  C   UNL     1      -3.074  -1.494   1.291  0.00  0.00    -0.032 C 
ATOM     52  H   UNL     1      -2.336  -1.977   1.968  0.00  0.00    +0.031 HD
BRANCH  51  53
ATOM     53  C   UNL     1      -4.220  -2.487   1.061  0.00  0.00    -0.061 C 
ATOM     54  H   UNL     1      -4.691  -2.759   2.029  0.00  0.00    +0.023 HD
ATOM     55  H   UNL     1      -4.994  -2.046   0.396  0.00  0.00    +0.023 HD
ATOM     56  H   UNL     1      -3.835  -3.417   0.593  0.00  0.00    +0.023 HD
ENDBRANCH  51  53
BRANCH  51  57
ATOM     57  C   UNL     1      -3.604  -0.228   1.980  0.00  0.00    -0.061 C 
ATOM     58  H   UNL     1      -4.322   0.307   1.321  0.00  0.00    +0.023 HD
ATOM     59  H   UNL     1      -2.767   0.458   2.228  0.00  0.00    +0.023 HD
ATOM     60  H   UNL     1      -4.118  -0.493   2.928  0.00  0.00    +0.023 HD
ENDBRANCH  51  57
ENDBRANCH  48  51
ENDBRANCH  47  48
BRANCH  47  61
ATOM     61  S   UNL     1      -1.178   1.068  -0.951  0.00  0.00    +0.061 S 
ATOM     62  O   UNL     1       0.093   1.854  -0.785  0.00  0.00    -0.153 OA
ATOM     63  O   UNL     1      -1.254   0.548  -2.360  0.00  0.00    -0.153 OA
BRANCH  61  67
ATOM     64  C   UNL     1      -4.744   3.787  -0.054  0.00  0.00    +0.120 A 
ATOM     65  C   UNL     1      -3.612   3.791   0.783  0.00  0.00    -0.018 A 
ATOM     66  C   UNL     1      -2.520   2.968   0.494  0.00  0.00    -0.032 A 
ATOM     67  C   UNL     1      -2.541   2.136  -0.631  0.00  0.00    +0.106 A 
ATOM     68  C   UNL     1      -3.667   2.128  -1.465  0.00  0.00    -0.032 A 
ATOM     69  C   UNL     1      -4.760   2.950  -1.177  0.00  0.00    -0.018 A 
ATOM     70  H   UNL     1      -3.568   4.422   1.661  0.00  0.00    +0.065 HD
ATOM     71  H   UNL     1      -1.661   2.973   1.153  0.00  0.00    +0.064 HD
ATOM     72  H   UNL     1      -3.707   1.480  -2.331  0.00  0.00    +0.064 HD
ATOM     73  H   UNL     1      -5.626   2.935  -1.826  0.00  0.00    +0.065 HD
BRANCH  64  74
ATOM     74  O   UNL     1      -5.867   4.591   0.194  0.00  0.00    -0.495 OA
BRANCH  74  75
ATOM     75  C   UNL     1      -5.988   5.483   1.297  0.00  0.00    +0.079 C 
ATOM     76  H   UNL     1      -6.974   5.989   1.248  0.00  0.00    +0.066 HD
ATOM     77  H   UNL     1      -5.925   4.919   2.252  0.00  0.00    +0.066 HD
ATOM     78  H   UNL     1      -5.190   6.254   1.255  0.00  0.00    +0.066 HD
ENDBRANCH  74  75
ENDBRANCH  64  74
ENDBRANCH  61  67
ENDBRANCH  47  61
ENDBRANCH  44  47
ENDBRANCH  42  44
BRANCH  42  79
ATOM     79  O   UNL     1       1.264  -0.573  -1.672  0.00  0.00    -0.389 OA
ATOM     80  H   UNL     1       1.365  -0.939  -2.590  0.00  0.00    +0.210 HD
ENDBRANCH  42  79
ENDBRANCH   1  42
TORSDOF 17
