REMARK  Name = 
REMARK  15 active torsions:
REMARK  status: ('A' for Active; 'I' for Inactive)
REMARK    1  A    between atoms: C_1  and  O_2
REMARK    2  A    between atoms: O_2  and  C_3
REMARK    3  A    between atoms: C_6  and  S_7
REMARK    4  A    between atoms: S_7  and  N_10
REMARK    5  A    between atoms: N_10  and  C_11
REMARK    6  A    between atoms: N_10  and  O_31
REMARK    7  A    between atoms: C_11  and  C_12
REMARK    8  A    between atoms: C_12  and  O_13
REMARK    9  A    between atoms: C_12  and  C_14
REMARK   10  A    between atoms: C_14  and  C_15
REMARK   11  A    between atoms: C_14  and  N_22
REMARK   12  A    between atoms: C_15  and  C_16
REMARK   13  A    between atoms: C_23  and  O_25
REMARK   14  A    between atoms: O_25  and  C_26
REMARK   15  A    between atoms: O_31  and  C_32
REMARK                            x       y       z     vdW  Elec       q    Type
REMARK                         _______ _______ _______ _____ _____    ______ ____
ROOT
ATOM      1  C   UNL     1      -1.833  -0.176   0.706  0.00  0.00    +0.075 C 
ATOM      2  H   UNL     1      -2.746   0.405   0.951  0.00  0.00    +0.049 HD
ATOM      3  H   UNL     1      -1.786  -0.959   1.490  0.00  0.00    +0.049 HD
ENDROOT
BRANCH   1   4
ATOM      4  C   UNL     1      -0.575   0.743   0.791  0.00  0.00    +0.091 C 
ATOM      5  H   UNL     1      -0.340   1.097  -0.231  0.00  0.00    +0.063 HD
BRANCH   4   6
ATOM      6  O   UNL     1      -0.840   1.898   1.551  0.00  0.00    -0.389 OA
ATOM      7  H   UNL     1      -1.270   1.616   2.400  0.00  0.00    +0.210 HD
ENDBRANCH   4   6
BRANCH   4   8
ATOM      8  C   UNL     1       0.692   0.011   1.318  0.00  0.00    +0.057 C 
ATOM      9  H   UNL     1       0.741  -0.996   0.853  0.00  0.00    +0.053 HD
BRANCH   8  10
ATOM     10  N   UNL     1       1.884   0.772   0.928  0.00  0.00    -0.275 N 
ATOM     11  C   UNL     1       2.563   0.555  -0.314  0.00  0.00    +0.401 C 
ATOM     12  O   UNL     1       2.224  -0.397  -1.070  0.00  0.00    -0.226 OA
ATOM     13  H   UNL     1       2.149   1.616   1.485  0.00  0.00    +0.152 HD
BRANCH  11  14
ATOM     14  O   UNL     1       3.604   1.414  -0.681  0.00  0.00    -0.445 OA
BRANCH  14  15
ATOM     15  C   UNL     1       4.301   1.305  -1.922  0.00  0.00    +0.130 C 
ATOM     16  C   UNL     1       5.445   2.269  -1.977  0.00  0.00    +0.010 C 
ATOM     17  C   UNL     1       5.508   2.632  -3.447  0.00  0.00    +0.051 C 
ATOM     18  O   UNL     1       4.250   2.403  -4.042  0.00  0.00    -0.376 OA
ATOM     19  C   UNL     1       3.442   1.742  -3.096  0.00  0.00    +0.085 C 
ATOM     20  H   UNL     1       4.676   0.267  -2.075  0.00  0.00    +0.076 HD
ATOM     21  H   UNL     1       5.220   3.179  -1.376  0.00  0.00    +0.032 HD
ATOM     22  H   UNL     1       6.392   1.807  -1.623  0.00  0.00    +0.032 HD
ATOM     23  H   UNL     1       6.266   2.000  -3.959  0.00  0.00    +0.056 HD
ATOM     24  H   UNL     1       5.794   3.698  -3.571  0.00  0.00    +0.056 HD
ATOM     25  H   UNL     1       2.958   0.862  -3.569  0.00  0.00    +0.060 HD
ATOM     26  H   UNL     1       2.647   2.442  -2.757  0.00  0.00    +0.060 HD
ENDBRANCH  14  15
ENDBRANCH  11  14
ENDBRANCH   8  10
BRANCH   8  27
ATOM     27  C   UNL     1       0.687  -0.200   2.849  0.00  0.00    -0.007 C 
ATOM     28  H   UNL     1      -0.278  -0.643   3.176  0.00  0.00    +0.033 HD
ATOM     29  H   UNL     1       0.782   0.776   3.373  0.00  0.00    +0.033 HD
BRANCH  27  30
ATOM     30  C   UNL     1       1.810  -1.113   3.272  0.00  0.00    -0.046 A 
ATOM     31  C   UNL     1       1.631  -2.507   3.258  0.00  0.00    -0.059 A 
ATOM     32  C   UNL     1       2.685  -3.356   3.607  0.00  0.00    -0.062 A 
ATOM     33  C   UNL     1       3.925  -2.822   3.967  0.00  0.00    -0.062 A 
ATOM     34  C   UNL     1       4.114  -1.437   3.977  0.00  0.00    -0.062 A 
ATOM     35  C   UNL     1       3.062  -0.584   3.628  0.00  0.00    -0.059 A 
ATOM     36  H   UNL     1       0.677  -2.934   2.978  0.00  0.00    +0.062 HD
ATOM     37  H   UNL     1       2.541  -4.429   3.596  0.00  0.00    +0.062 HD
ATOM     38  H   UNL     1       4.741  -3.481   4.235  0.00  0.00    +0.062 HD
ATOM     39  H   UNL     1       5.076  -1.025   4.251  0.00  0.00    +0.062 HD
ATOM     40  H   UNL     1       3.225   0.486   3.631  0.00  0.00    +0.062 HD
ENDBRANCH  27  30
ENDBRANCH   8  27
ENDBRANCH   4   8
ENDBRANCH   1   4
BRANCH   1  41
ATOM     41  N   UNL     1      -2.017  -0.841  -0.601  0.00  0.00    -0.052 NA
BRANCH  41  42
ATOM     42  S   UNL     1      -2.471   0.268  -1.875  0.00  0.00    +0.083 S 
ATOM     43  O   UNL     1      -1.241   0.800  -2.558  0.00  0.00    -0.151 OA
ATOM     44  O   UNL     1      -3.281  -0.480  -2.896  0.00  0.00    -0.151 OA
BRANCH  42  48
ATOM     45  C   UNL     1      -4.982   3.734  -0.251  0.00  0.00    +0.120 A 
ATOM     46  C   UNL     1      -3.627   3.921  -0.549  0.00  0.00    -0.018 A 
ATOM     47  C   UNL     1      -2.859   2.869  -1.054  0.00  0.00    -0.032 A 
ATOM     48  C   UNL     1      -3.440   1.612  -1.270  0.00  0.00    +0.108 A 
ATOM     49  C   UNL     1      -4.794   1.417  -0.972  0.00  0.00    -0.032 A 
ATOM     50  C   UNL     1      -5.564   2.470  -0.467  0.00  0.00    -0.018 A 
ATOM     51  H   UNL     1      -3.166   4.887  -0.384  0.00  0.00    +0.065 HD
ATOM     52  H   UNL     1      -1.811   3.034  -1.269  0.00  0.00    +0.064 HD
ATOM     53  H   UNL     1      -5.253   0.448  -1.124  0.00  0.00    +0.064 HD
ATOM     54  H   UNL     1      -6.607   2.289  -0.246  0.00  0.00    +0.065 HD
BRANCH  45  55
ATOM     55  O   UNL     1      -5.710   4.821   0.255  0.00  0.00    -0.495 OA
BRANCH  55  56
ATOM     56  C   UNL     1      -7.090   4.772   0.601  0.00  0.00    +0.079 C 
ATOM     57  H   UNL     1      -7.406   5.768   0.973  0.00  0.00    +0.066 HD
ATOM     58  H   UNL     1      -7.699   4.516  -0.291  0.00  0.00    +0.066 HD
ATOM     59  H   UNL     1      -7.256   4.024   1.405  0.00  0.00    +0.066 HD
ENDBRANCH  55  56
ENDBRANCH  45  55
ENDBRANCH  42  48
ENDBRANCH  41  42
BRANCH  41  60
ATOM     60  O   UNL     1      -0.857  -1.451  -0.969  0.00  0.00    -0.273 OA
BRANCH  60  61
ATOM     61  C   UNL     1      -1.157  -2.811  -1.183  0.00  0.00    +0.082 C 
ATOM     62  C   UNL     1      -0.017  -3.482  -1.928  0.00  0.00    -0.025 C 
ATOM     63  C   UNL     1      -0.067  -4.946  -1.519  0.00  0.00    -0.051 C 
ATOM     64  C   UNL     1      -0.794  -4.999  -0.176  0.00  0.00    -0.051 C 
ATOM     65  C   UNL     1      -1.261  -3.581   0.130  0.00  0.00    -0.025 C 
ATOM     66  H   UNL     1      -2.092  -2.943  -1.780  0.00  0.00    +0.062 HD
ATOM     67  H   UNL     1       0.957  -3.045  -1.609  0.00  0.00    +0.029 HD
ATOM     68  H   UNL     1      -0.127  -3.362  -3.028  0.00  0.00    +0.029 HD
ATOM     69  H   UNL     1      -0.636  -5.527  -2.278  0.00  0.00    +0.027 HD
ATOM     70  H   UNL     1       0.958  -5.369  -1.437  0.00  0.00    +0.027 HD
ATOM     71  H   UNL     1      -0.114  -5.364   0.625  0.00  0.00    +0.027 HD
ATOM     72  H   UNL     1      -1.668  -5.684  -0.243  0.00  0.00    +0.027 HD
ATOM     73  H   UNL     1      -0.588  -3.129   0.889  0.00  0.00    +0.029 HD
ATOM     74  H   UNL     1      -2.303  -3.572   0.517  0.00  0.00    +0.029 HD
ENDBRANCH  60  61
ENDBRANCH  41  60
ENDBRANCH   1  41
TORSDOF 15
