REMARK  Name = 
REMARK  15 active torsions:
REMARK  status: ('A' for Active; 'I' for Inactive)
REMARK    1  A    between atoms: C_1  and  O_2
REMARK    2  A    between atoms: O_2  and  C_3
REMARK    3  A    between atoms: C_6  and  S_7
REMARK    4  A    between atoms: S_7  and  N_10
REMARK    5  A    between atoms: N_10  and  C_11
REMARK    6  A    between atoms: N_10  and  O_31
REMARK    7  A    between atoms: C_11  and  C_12
REMARK    8  A    between atoms: C_12  and  O_13
REMARK    9  A    between atoms: C_12  and  C_14
REMARK   10  A    between atoms: C_14  and  C_15
REMARK   11  A    between atoms: C_14  and  N_22
REMARK   12  A    between atoms: C_15  and  C_16
REMARK   13  A    between atoms: C_23  and  O_25
REMARK   14  A    between atoms: O_25  and  C_26
REMARK   15  A    between atoms: O_31  and  C_32
REMARK                            x       y       z     vdW  Elec       q    Type
REMARK                         _______ _______ _______ _____ _____    ______ ____
ROOT
ATOM      1  C   UNL     1       0.913  -0.648   0.457  0.00  0.00    +0.075 C 
ATOM      2  H   UNL     1       0.406   0.050  -0.245  0.00  0.00    +0.049 HD
ATOM      3  H   UNL     1       1.166  -0.080   1.380  0.00  0.00    +0.049 HD
ENDROOT
BRANCH   1   4
ATOM      4  C   UNL     1      -0.053  -1.785   0.852  0.00  0.00    +0.091 C 
ATOM      5  H   UNL     1      -0.370  -2.310  -0.074  0.00  0.00    +0.063 HD
BRANCH   4   6
ATOM      6  O   UNL     1       0.618  -2.712   1.670  0.00  0.00    -0.389 OA
ATOM      7  H   UNL     1       0.889  -2.239   2.500  0.00  0.00    +0.210 HD
ENDBRANCH   4   6
BRANCH   4   8
ATOM      8  C   UNL     1      -1.332  -1.240   1.551  0.00  0.00    +0.057 C 
ATOM      9  H   UNL     1      -1.039  -0.746   2.504  0.00  0.00    +0.053 HD
BRANCH   8  10
ATOM     10  N   UNL     1      -1.993  -0.264   0.676  0.00  0.00    -0.275 N 
ATOM     11  C   UNL     1      -1.862   1.154   0.839  0.00  0.00    +0.401 C 
ATOM     12  O   UNL     1      -1.317   1.633   1.871  0.00  0.00    -0.226 OA
ATOM     13  H   UNL     1      -2.446  -0.610  -0.200  0.00  0.00    +0.152 HD
BRANCH  11  14
ATOM     14  O   UNL     1      -2.325   1.999  -0.175  0.00  0.00    -0.445 OA
BRANCH  14  15
ATOM     15  C   UNL     1      -2.193   3.421  -0.133  0.00  0.00    +0.130 C 
ATOM     16  C   UNL     1      -2.534   3.998  -1.472  0.00  0.00    +0.010 C 
ATOM     17  C   UNL     1      -4.022   4.255  -1.364  0.00  0.00    +0.051 C 
ATOM     18  O   UNL     1      -4.376   4.388  -0.006  0.00  0.00    -0.376 OA
ATOM     19  C   UNL     1      -3.251   4.036   0.767  0.00  0.00    +0.085 C 
ATOM     20  H   UNL     1      -1.163   3.707   0.175  0.00  0.00    +0.076 HD
ATOM     21  H   UNL     1      -1.997   4.961  -1.619  0.00  0.00    +0.032 HD
ATOM     22  H   UNL     1      -2.289   3.306  -2.308  0.00  0.00    +0.032 HD
ATOM     23  H   UNL     1      -4.585   3.401  -1.800  0.00  0.00    +0.056 HD
ATOM     24  H   UNL     1      -4.297   5.179  -1.916  0.00  0.00    +0.056 HD
ATOM     25  H   UNL     1      -2.846   4.955   1.244  0.00  0.00    +0.060 HD
ATOM     26  H   UNL     1      -3.557   3.335   1.572  0.00  0.00    +0.060 HD
ENDBRANCH  14  15
ENDBRANCH  11  14
ENDBRANCH   8  10
BRANCH   8  27
ATOM     27  C   UNL     1      -2.346  -2.360   1.877  0.00  0.00    -0.007 C 
ATOM     28  H   UNL     1      -2.545  -2.963   0.964  0.00  0.00    +0.033 HD
ATOM     29  H   UNL     1      -3.315  -1.896   2.165  0.00  0.00    +0.033 HD
BRANCH  27  30
ATOM     30  C   UNL     1      -1.903  -3.245   3.016  0.00  0.00    -0.046 A 
ATOM     31  C   UNL     1      -1.497  -4.569   2.775  0.00  0.00    -0.059 A 
ATOM     32  C   UNL     1      -1.078  -5.381   3.833  0.00  0.00    -0.062 A 
ATOM     33  C   UNL     1      -1.065  -4.881   5.137  0.00  0.00    -0.062 A 
ATOM     34  C   UNL     1      -1.472  -3.568   5.387  0.00  0.00    -0.062 A 
ATOM     35  C   UNL     1      -1.891  -2.752   4.332  0.00  0.00    -0.059 A 
ATOM     36  H   UNL     1      -1.497  -4.969   1.768  0.00  0.00    +0.062 HD
ATOM     37  H   UNL     1      -0.762  -6.399   3.640  0.00  0.00    +0.062 HD
ATOM     38  H   UNL     1      -0.740  -5.512   5.955  0.00  0.00    +0.062 HD
ATOM     39  H   UNL     1      -1.462  -3.182   6.398  0.00  0.00    +0.062 HD
ATOM     40  H   UNL     1      -2.205  -1.736   4.539  0.00  0.00    +0.062 HD
ENDBRANCH  27  30
ENDBRANCH   8  27
ENDBRANCH   4   8
ENDBRANCH   1   4
BRANCH   1  41
ATOM     41  N   UNL     1       2.139  -1.175  -0.168  0.00  0.00    -0.052 NA
BRANCH  41  42
ATOM     42  S   UNL     1       3.345   0.085  -0.170  0.00  0.00    +0.083 S 
ATOM     43  O   UNL     1       3.939   0.194   1.207  0.00  0.00    -0.151 OA
ATOM     44  O   UNL     1       4.448  -0.252  -1.133  0.00  0.00    -0.151 OA
BRANCH  42  48
ATOM     45  C   UNL     1       1.438   4.064  -1.393  0.00  0.00    +0.120 A 
ATOM     46  C   UNL     1       1.667   3.062  -2.343  0.00  0.00    -0.018 A 
ATOM     47  C   UNL     1       2.263   1.853  -1.971  0.00  0.00    -0.032 A 
ATOM     48  C   UNL     1       2.637   1.633  -0.639  0.00  0.00    +0.108 A 
ATOM     49  C   UNL     1       2.400   2.628   0.319  0.00  0.00    -0.032 A 
ATOM     50  C   UNL     1       1.809   3.838  -0.053  0.00  0.00    -0.018 A 
ATOM     51  H   UNL     1       1.380   3.220  -3.375  0.00  0.00    +0.065 HD
ATOM     52  H   UNL     1       2.427   1.087  -2.718  0.00  0.00    +0.064 HD
ATOM     53  H   UNL     1       2.665   2.467   1.356  0.00  0.00    +0.064 HD
ATOM     54  H   UNL     1       1.639   4.588   0.707  0.00  0.00    +0.065 HD
BRANCH  45  55
ATOM     55  O   UNL     1       0.844   5.262  -1.816  0.00  0.00    -0.495 OA
BRANCH  55  56
ATOM     56  C   UNL     1       0.577   6.372  -0.964  0.00  0.00    +0.079 C 
ATOM     57  H   UNL     1      -0.121   6.075  -0.154  0.00  0.00    +0.066 HD
ATOM     58  H   UNL     1       1.525   6.756  -0.530  0.00  0.00    +0.066 HD
ATOM     59  H   UNL     1       0.105   7.180  -1.560  0.00  0.00    +0.066 HD
ENDBRANCH  55  56
ENDBRANCH  45  55
ENDBRANCH  42  48
ENDBRANCH  41  42
BRANCH  41  60
ATOM     60  O   UNL     1       1.860  -1.459  -1.472  0.00  0.00    -0.273 OA
BRANCH  60  61
ATOM     61  C   UNL     1       1.947  -2.862  -1.636  0.00  0.00    +0.082 C 
ATOM     62  C   UNL     1       3.281  -3.244  -2.260  0.00  0.00    -0.025 C 
ATOM     63  C   UNL     1       3.102  -3.051  -3.758  0.00  0.00    -0.051 C 
ATOM     64  C   UNL     1       1.603  -3.166  -4.029  0.00  0.00    -0.051 C 
ATOM     65  C   UNL     1       0.919  -3.298  -2.671  0.00  0.00    -0.025 C 
ATOM     66  H   UNL     1       1.783  -3.430  -0.689  0.00  0.00    +0.062 HD
ATOM     67  H   UNL     1       4.122  -2.640  -1.865  0.00  0.00    +0.029 HD
ATOM     68  H   UNL     1       3.490  -4.316  -2.050  0.00  0.00    +0.029 HD
ATOM     69  H   UNL     1       3.461  -2.039  -4.049  0.00  0.00    +0.027 HD
ATOM     70  H   UNL     1       3.674  -3.816  -4.326  0.00  0.00    +0.027 HD
ATOM     71  H   UNL     1       1.240  -2.254  -4.552  0.00  0.00    +0.027 HD
ATOM     72  H   UNL     1       1.383  -4.053  -4.662  0.00  0.00    +0.027 HD
ATOM     73  H   UNL     1      -0.004  -2.680  -2.620  0.00  0.00    +0.029 HD
ATOM     74  H   UNL     1       0.645  -4.362  -2.496  0.00  0.00    +0.029 HD
ENDBRANCH  60  61
ENDBRANCH  41  60
ENDBRANCH   1  41
TORSDOF 15
