REMARK  Name = 
REMARK  9 active torsions:
REMARK  status: ('A' for Active; 'I' for Inactive)
REMARK    1  A    between atoms: C_1  and  C_2
REMARK    2  A    between atoms: C_2  and  C_3
REMARK    3  A    between atoms: C_3  and  C_4
REMARK    4  A    between atoms: C_3  and  C_22
REMARK    5  A    between atoms: C_8  and  N_9
REMARK    6  A    between atoms: N_9  and  S_10
REMARK    7  A    between atoms: S_10  and  C_13
REMARK    8  A    between atoms: C_16  and  C_17
REMARK    9  A    between atoms: C_23  and  O_24
REMARK                            x       y       z     vdW  Elec       q    Type
REMARK                         _______ _______ _______ _____ _____    ______ ____
ROOT
ATOM      1  C   UNL     1       0.959  -2.506  -1.805  0.00  0.00    +0.019 C 
ATOM      2  H   UNL     1       1.138  -2.200  -2.861  0.00  0.00    +0.040 HD
ENDROOT
BRANCH   1   3
ATOM      3  C   UNL     1       1.794  -1.538  -0.952  0.00  0.00    +0.086 A 
ATOM      4  C   UNL     1       1.792  -0.169  -1.294  0.00  0.00    +0.134 A 
ATOM      5  C   UNL     1       2.543   0.757  -0.531  0.00  0.00    +0.033 A 
ATOM      6  C   UNL     1       2.607   2.224  -0.925  0.00  0.00    -0.021 C 
ATOM      7  C   UNL     1       1.493   3.053  -0.268  0.00  0.00    -0.049 C 
ATOM      8  C   UNL     1       1.794   3.448   1.191  0.00  0.00    -0.053 C 
ATOM      9  C   UNL     1       1.625   2.286   2.192  0.00  0.00    -0.053 C 
ATOM     10  C   UNL     1       2.954   1.701   2.703  0.00  0.00    -0.046 C 
ATOM     11  C   UNL     1       3.899   1.180   1.610  0.00  0.00    +0.006 C 
ATOM     12  C   UNL     1       3.187   0.278   0.634  0.00  0.00    +0.116 A 
ATOM     13  O   UNL     1       3.119  -1.008   0.950  0.00  0.00    -0.427 OA
ATOM     14  C   UNL     1       2.472  -1.912   0.230  0.00  0.00    +0.344 A 
ATOM     15  O   UNL     1       2.462  -3.100   0.645  0.00  0.00    -0.245 OA
ATOM     16  H   UNL     1       2.535   2.325  -2.026  0.00  0.00    +0.032 HD
ATOM     17  H   UNL     1       3.597   2.671  -0.716  0.00  0.00    +0.032 HD
ATOM     18  H   UNL     1       0.518   2.522  -0.335  0.00  0.00    +0.027 HD
ATOM     19  H   UNL     1       1.383   3.992  -0.852  0.00  0.00    +0.027 HD
ATOM     20  H   UNL     1       1.070   4.245   1.468  0.00  0.00    +0.027 HD
ATOM     21  H   UNL     1       2.803   3.908   1.269  0.00  0.00    +0.027 HD
ATOM     22  H   UNL     1       1.079   2.669   3.082  0.00  0.00    +0.027 HD
ATOM     23  H   UNL     1       0.987   1.478   1.771  0.00  0.00    +0.027 HD
ATOM     24  H   UNL     1       3.489   2.475   3.297  0.00  0.00    +0.027 HD
ATOM     25  H   UNL     1       2.718   0.864   3.396  0.00  0.00    +0.027 HD
ATOM     26  H   UNL     1       4.704   0.594   2.104  0.00  0.00    +0.034 HD
ATOM     27  H   UNL     1       4.423   2.020   1.120  0.00  0.00    +0.034 HD
BRANCH   4  28
ATOM     28  O   UNL     1       1.008   0.242  -2.380  0.00  0.00    -0.506 OA
ATOM     29  H   UNL     1       0.795   1.206  -2.596  0.00  0.00    +0.292 HD
ENDBRANCH   4  28
ENDBRANCH   1   3
BRANCH   1  30
ATOM     30  C   UNL     1      -0.517  -2.338  -1.493  0.00  0.00    -0.038 A 
ATOM     31  C   UNL     1      -1.429  -2.077  -2.530  0.00  0.00    -0.058 A 
ATOM     32  C   UNL     1      -2.783  -1.887  -2.249  0.00  0.00    -0.060 A 
ATOM     33  C   UNL     1      -3.240  -1.940  -0.931  0.00  0.00    -0.039 A 
ATOM     34  C   UNL     1      -2.344  -2.193   0.119  0.00  0.00    +0.048 A 
ATOM     35  C   UNL     1      -0.992  -2.424  -0.171  0.00  0.00    -0.036 A 
ATOM     36  H   UNL     1      -1.093  -2.017  -3.557  0.00  0.00    +0.062 HD
ATOM     37  H   UNL     1      -3.479  -1.690  -3.054  0.00  0.00    +0.062 HD
ATOM     38  H   UNL     1      -4.293  -1.792  -0.737  0.00  0.00    +0.064 HD
ATOM     39  H   UNL     1      -0.305  -2.627   0.640  0.00  0.00    +0.064 HD
BRANCH  34  40
ATOM     40  N   UNL     1      -2.788  -2.198   1.483  0.00  0.00    -0.216 N 
ATOM     41  H   UNL     1      -2.229  -2.721   2.194  0.00  0.00    +0.174 HD
BRANCH  40  42
ATOM     42  S   UNL     1      -3.908  -1.015   2.076  0.00  0.00    +0.072 S 
ATOM     43  O   UNL     1      -3.883  -1.017   3.579  0.00  0.00    -0.150 OA
ATOM     44  O   UNL     1      -5.301  -1.354   1.624  0.00  0.00    -0.150 OA
BRANCH  42  45
ATOM     45  C   UNL     1      -3.433   0.579   1.496  0.00  0.00    +0.109 A 
ATOM     46  C   UNL     1      -2.403   1.279   2.141  0.00  0.00    -0.034 A 
ATOM     47  C   UNL     1      -1.991   2.525   1.661  0.00  0.00    -0.042 A 
ATOM     48  C   UNL     1      -2.588   3.071   0.518  0.00  0.00    +0.052 A 
ATOM     49  C   UNL     1      -3.615   2.374  -0.130  0.00  0.00    -0.042 A 
ATOM     50  C   UNL     1      -4.040   1.135   0.360  0.00  0.00    -0.034 A 
ATOM     51  H   UNL     1      -1.917   0.858   3.012  0.00  0.00    +0.064 HD
ATOM     52  H   UNL     1      -1.206   3.062   2.176  0.00  0.00    +0.063 HD
ATOM     53  H   UNL     1      -4.086   2.787  -1.015  0.00  0.00    +0.063 HD
ATOM     54  H   UNL     1      -4.832   0.606  -0.154  0.00  0.00    +0.064 HD
BRANCH  48  55
ATOM     55  C   UNL     1      -2.140   4.340   0.009  0.00  0.00    +0.099 C 
ATOM     56  N   UNL     1      -1.778   5.360  -0.401  0.00  0.00    -0.191 NA
ENDBRANCH  48  55
ENDBRANCH  42  45
ENDBRANCH  40  42
ENDBRANCH  34  40
ENDBRANCH   1  30
BRANCH   1  57
ATOM     57  C   UNL     1       1.379  -3.994  -1.742  0.00  0.00    -0.045 C 
ATOM     58  H   UNL     1       2.487  -4.067  -1.799  0.00  0.00    +0.027 HD
ATOM     59  H   UNL     1       1.037  -4.459  -0.793  0.00  0.00    +0.027 HD
BRANCH  57  60
ATOM     60  C   UNL     1       0.797  -4.809  -2.899  0.00  0.00    -0.064 C 
ATOM     61  H   UNL     1       1.153  -5.858  -2.828  0.00  0.00    +0.023 HD
ATOM     62  H   UNL     1       1.126  -4.391  -3.874  0.00  0.00    +0.023 HD
ATOM     63  H   UNL     1      -0.312  -4.812  -2.855  0.00  0.00    +0.023 HD
ENDBRANCH  57  60
ENDBRANCH   1  57
TORSDOF 9
