REMARK  Name = 
REMARK  14 active torsions:
REMARK  status: ('A' for Active; 'I' for Inactive)
REMARK    1  A    between atoms: C_1  and  C_2
REMARK    2  A    between atoms: C_2  and  C_3
REMARK    3  A    between atoms: C_2  and  C_4
REMARK    4  A    between atoms: C_2  and  N_5
REMARK    5  A    between atoms: C_6  and  C_8
REMARK    6  A    between atoms: C_13  and  C_14
REMARK    7  A    between atoms: C_14  and  C_15
REMARK    8  A    between atoms: C_15  and  O_16
REMARK    9  A    between atoms: C_15  and  C_17
REMARK   10  A    between atoms: C_17  and  C_18
REMARK   11  A    between atoms: C_17  and  N_30
REMARK   12  A    between atoms: C_18  and  S_19
REMARK   13  A    between atoms: S_19  and  C_20
REMARK   14  A    between atoms: C_31  and  C_33
REMARK                            x       y       z     vdW  Elec       q    Type
REMARK                         _______ _______ _______ _____ _____    ______ ____
ROOT
ATOM      1  C   UNL     1      -0.985   0.718   1.162  0.00  0.00    +0.059 C 
ATOM      2  H   UNL     1      -1.317   1.218   2.101  0.00  0.00    +0.053 HD
ENDROOT
BRANCH   1   3
ATOM      3  N   UNL     1      -0.871   1.767   0.140  0.00  0.00    -0.305 N 
ATOM      4  C   UNL     1      -1.939   2.681  -0.153  0.00  0.00    +0.245 C 
ATOM      5  O   UNL     1      -3.008   2.641   0.513  0.00  0.00    -0.270 OA
ATOM      6  H   UNL     1       0.055   1.958  -0.300  0.00  0.00    +0.149 HD
BRANCH   4   7
ATOM      7  C   UNL     1      -1.803   3.643  -1.271  0.00  0.00    +0.047 A 
ATOM      8  C   UNL     1      -1.311   3.167  -2.496  0.00  0.00    -0.031 A 
ATOM      9  C   UNL     1      -1.213   4.023  -3.591  0.00  0.00    +0.029 A 
ATOM     10  N   UNL     1      -1.589   5.322  -3.479  0.00  0.00    -0.255 NA
ATOM     11  C   UNL     1      -2.059   5.834  -2.312  0.00  0.00    +0.072 A 
ATOM     12  C   UNL     1      -2.419   7.185  -2.249  0.00  0.00    -0.036 A 
ATOM     13  C   UNL     1      -2.875   7.736  -1.050  0.00  0.00    -0.060 A 
ATOM     14  C   UNL     1      -2.965   6.942   0.095  0.00  0.00    -0.061 A 
ATOM     15  C   UNL     1      -2.611   5.590   0.046  0.00  0.00    -0.052 A 
ATOM     16  C   UNL     1      -2.172   5.009  -1.163  0.00  0.00    +0.012 A 
ATOM     17  H   UNL     1      -1.029   2.129  -2.614  0.00  0.00    +0.064 HD
ATOM     18  H   UNL     1      -0.843   3.651  -4.537  0.00  0.00    +0.083 HD
ATOM     19  H   UNL     1      -2.339   7.813  -3.128  0.00  0.00    +0.064 HD
ATOM     20  H   UNL     1      -3.149   8.782  -1.005  0.00  0.00    +0.062 HD
ATOM     21  H   UNL     1      -3.303   7.378   1.026  0.00  0.00    +0.062 HD
ATOM     22  H   UNL     1      -2.668   5.022   0.963  0.00  0.00    +0.062 HD
ENDBRANCH   4   7
ENDBRANCH   1   3
BRANCH   1  23
ATOM     23  C   UNL     1      -2.084  -0.322   0.828  0.00  0.00    +0.019 C 
ATOM     24  H   UNL     1      -3.061   0.059   1.195  0.00  0.00    +0.040 HD
ATOM     25  H   UNL     1      -1.885  -1.273   1.368  0.00  0.00    +0.040 HD
BRANCH  23  26
ATOM     26  S   UNL     1      -2.261  -0.655  -0.965  0.00  0.00    -0.123 S 
BRANCH  26  27
ATOM     27  C   UNL     1      -3.523  -1.906  -0.733  0.00  0.00    +0.009 A 
ATOM     28  C   UNL     1      -4.874  -1.542  -0.722  0.00  0.00    -0.048 A 
ATOM     29  C   UNL     1      -5.863  -2.513  -0.540  0.00  0.00    -0.053 A 
ATOM     30  C   UNL     1      -5.507  -3.859  -0.370  0.00  0.00    -0.018 A 
ATOM     31  C   UNL     1      -6.490  -4.843  -0.185  0.00  0.00    -0.054 A 
ATOM     32  C   UNL     1      -6.122  -6.181  -0.016  0.00  0.00    -0.061 A 
ATOM     33  C   UNL     1      -4.773  -6.546  -0.030  0.00  0.00    -0.061 A 
ATOM     34  C   UNL     1      -3.783  -5.576  -0.213  0.00  0.00    -0.054 A 
ATOM     35  C   UNL     1      -4.139  -4.229  -0.384  0.00  0.00    -0.017 A 
ATOM     36  C   UNL     1      -3.155  -3.246  -0.568  0.00  0.00    -0.041 A 
ATOM     37  H   UNL     1      -5.159  -0.506  -0.851  0.00  0.00    +0.063 HD
ATOM     38  H   UNL     1      -6.904  -2.212  -0.532  0.00  0.00    +0.062 HD
ATOM     39  H   UNL     1      -7.541  -4.578  -0.172  0.00  0.00    +0.062 HD
ATOM     40  H   UNL     1      -6.883  -6.936   0.126  0.00  0.00    +0.062 HD
ATOM     41  H   UNL     1      -4.494  -7.583   0.102  0.00  0.00    +0.062 HD
ATOM     42  H   UNL     1      -2.742  -5.877  -0.221  0.00  0.00    +0.062 HD
ATOM     43  H   UNL     1      -2.105  -3.516  -0.579  0.00  0.00    +0.063 HD
ENDBRANCH  26  27
ENDBRANCH  23  26
ENDBRANCH   1  23
BRANCH   1  44
ATOM     44  C   UNL     1       0.396   0.084   1.514  0.00  0.00    +0.078 C 
ATOM     45  H   UNL     1       0.229  -0.539   2.426  0.00  0.00    +0.062 HD
BRANCH  44  46
ATOM     46  C   UNL     1       1.006  -0.882   0.457  0.00  0.00    +0.001 C 
ATOM     47  H   UNL     1       1.577  -1.673   0.988  0.00  0.00    +0.034 HD
ATOM     48  H   UNL     1       0.213  -1.452  -0.064  0.00  0.00    +0.034 HD
BRANCH  46  54
ATOM     49  C   UNL     1       3.322  -0.087  -0.369  0.00  0.00    +0.040 A 
ATOM     50  C   UNL     1       4.095   0.538  -1.365  0.00  0.00    -0.049 A 
ATOM     51  C   UNL     1       3.504   1.009  -2.538  0.00  0.00    -0.061 A 
ATOM     52  C   UNL     1       2.137   0.848  -2.744  0.00  0.00    -0.061 A 
ATOM     53  C   UNL     1       1.353   0.229  -1.771  0.00  0.00    -0.058 A 
ATOM     54  C   UNL     1       1.916  -0.218  -0.561  0.00  0.00    -0.033 A 
ATOM     55  H   UNL     1       5.162   0.668  -1.233  0.00  0.00    +0.063 HD
ATOM     56  H   UNL     1       4.111   1.491  -3.293  0.00  0.00    +0.062 HD
ATOM     57  H   UNL     1       1.683   1.200  -3.661  0.00  0.00    +0.062 HD
ATOM     58  H   UNL     1       0.298   0.101  -1.965  0.00  0.00    +0.062 HD
BRANCH  49  60
ATOM     59  N   UNL     1       5.262  -1.348   0.661  0.00  0.00    -0.307 N 
ATOM     60  C   UNL     1       4.026  -0.624   0.823  0.00  0.00    +0.245 C 
ATOM     61  O   UNL     1       3.548  -0.433   1.971  0.00  0.00    -0.270 OA
ATOM     62  H   UNL     1       5.560  -1.558  -0.319  0.00  0.00    +0.150 HD
BRANCH  59  63
ATOM     63  C   UNL     1       6.114  -1.827   1.768  0.00  0.00    +0.026 C 
BRANCH  63  64
ATOM     64  C   UNL     1       6.579  -0.640   2.635  0.00  0.00    -0.044 C 
ATOM     65  H   UNL     1       7.303  -0.979   3.406  0.00  0.00    +0.025 HD
ATOM     66  H   UNL     1       7.072   0.128   2.001  0.00  0.00    +0.025 HD
ATOM     67  H   UNL     1       5.728  -0.163   3.162  0.00  0.00    +0.025 HD
ENDBRANCH  63  64
BRANCH  63  68
ATOM     68  C   UNL     1       5.347  -2.851   2.628  0.00  0.00    -0.044 C 
ATOM     69  H   UNL     1       4.946  -3.666   1.987  0.00  0.00    +0.025 HD
ATOM     70  H   UNL     1       6.019  -3.301   3.391  0.00  0.00    +0.025 HD
ATOM     71  H   UNL     1       4.500  -2.381   3.167  0.00  0.00    +0.025 HD
ENDBRANCH  63  68
BRANCH  63  72
ATOM     72  C   UNL     1       7.360  -2.519   1.178  0.00  0.00    -0.044 C 
ATOM     73  H   UNL     1       8.030  -2.889   1.985  0.00  0.00    +0.025 HD
ATOM     74  H   UNL     1       7.062  -3.384   0.547  0.00  0.00    +0.025 HD
ATOM     75  H   UNL     1       7.935  -1.808   0.546  0.00  0.00    +0.025 HD
ENDBRANCH  63  72
ENDBRANCH  59  63
ENDBRANCH  49  60
ENDBRANCH  46  54
ENDBRANCH  44  46
BRANCH  44  76
ATOM     76  O   UNL     1       1.313   1.099   1.838  0.00  0.00    -0.390 OA
ATOM     77  H   UNL     1       1.055   1.455   2.728  0.00  0.00    +0.210 HD
ENDBRANCH  44  76
ENDBRANCH   1  44
TORSDOF 14
