REMARK  Name = 
REMARK  18 active torsions:
REMARK  status: ('A' for Active; 'I' for Inactive)
REMARK    1  A    between atoms: C_1  and  C_2
REMARK    2  A    between atoms: N_4  and  C_5
REMARK    3  A    between atoms: C_5  and  C_6
REMARK    4  A    between atoms: C_5  and  C_10
REMARK    5  A    between atoms: C_6  and  C_7
REMARK    6  A    between atoms: N_12  and  C_13
REMARK    7  A    between atoms: C_13  and  C_14
REMARK    8  A    between atoms: C_13  and  C_22
REMARK    9  A    between atoms: C_14  and  S_15
REMARK   10  A    between atoms: S_15  and  C_16
REMARK   11  A    between atoms: C_22  and  O_23
REMARK   12  A    between atoms: C_22  and  C_24
REMARK   13  A    between atoms: C_24  and  C_25
REMARK   14  A    between atoms: C_30  and  C_31
REMARK   15  A    between atoms: N_33  and  C_34
REMARK   16  A    between atoms: C_34  and  C_35
REMARK   17  A    between atoms: C_34  and  C_36
REMARK   18  A    between atoms: C_34  and  C_37
REMARK                            x       y       z     vdW  Elec       q    Type
REMARK                         _______ _______ _______ _____ _____    ______ ____
ROOT
ATOM      1  C   UNL     1      -0.711   1.065   0.011  0.00  0.00    +0.059 C 
ATOM      2  H   UNL     1      -1.178   1.387  -0.944  0.00  0.00    +0.053 HD
ENDROOT
BRANCH   1   5
ATOM      3  C   UNL     1      -2.940  -0.099   0.403  0.00  0.00    +0.234 C 
ATOM      4  O   UNL     1      -3.189  -0.090  -0.833  0.00  0.00    -0.274 OA
ATOM      5  N   UNL     1      -1.745   0.524   0.898  0.00  0.00    -0.308 N 
ATOM      6  H   UNL     1      -1.541   0.464   1.922  0.00  0.00    +0.149 HD
BRANCH   3   7
ATOM      7  C   UNL     1      -3.879  -0.778   1.370  0.00  0.00    +0.108 C 
ATOM      8  H   UNL     1      -3.973  -0.101   2.248  0.00  0.00    +0.060 HD
BRANCH   7  11
ATOM      9  C   UNL     1      -5.550  -1.838  -0.290  0.00  0.00    +0.211 C 
ATOM     10  O   UNL     1      -4.651  -2.487  -0.889  0.00  0.00    -0.276 OA
ATOM     11  N   UNL     1      -5.223  -0.954   0.797  0.00  0.00    -0.304 N 
ATOM     12  H   UNL     1      -6.004  -0.413   1.233  0.00  0.00    +0.149 HD
BRANCH   9  13
ATOM     13  C   UNL     1      -6.971  -1.980  -0.726  0.00  0.00    +0.012 C 
ATOM     14  H   UNL     1      -7.063  -2.751  -1.520  0.00  0.00    +0.032 HD
ATOM     15  H   UNL     1      -7.336  -1.009  -1.121  0.00  0.00    +0.032 HD
ATOM     16  H   UNL     1      -7.597  -2.281   0.140  0.00  0.00    +0.032 HD
ENDBRANCH   9  13
ENDBRANCH   7  11
BRANCH   7  17
ATOM     17  C   UNL     1      -3.286  -2.107   1.877  0.00  0.00    +0.051 C 
ATOM     18  H   UNL     1      -3.098  -2.808   1.038  0.00  0.00    +0.038 HD
ATOM     19  H   UNL     1      -2.301  -1.913   2.355  0.00  0.00    +0.038 HD
BRANCH  17  20
ATOM     20  C   UNL     1      -4.183  -2.752   2.894  0.00  0.00    +0.213 C 
ATOM     21  N   UNL     1      -5.061  -3.813   2.520  0.00  0.00    -0.329 N 
ATOM     22  O   UNL     1      -4.183  -2.332   4.082  0.00  0.00    -0.276 OA
ATOM     23  H   UNL     1      -5.697  -4.244   3.228  0.00  0.00    +0.145 HD
ATOM     24  H   UNL     1      -5.079  -4.173   1.540  0.00  0.00    +0.145 HD
ENDBRANCH  17  20
ENDBRANCH   7  17
ENDBRANCH   3   7
ENDBRANCH   1   5
BRANCH   1  25
ATOM     25  C   UNL     1      -0.068   2.312   0.654  0.00  0.00    +0.019 C 
ATOM     26  H   UNL     1       0.427   2.036   1.609  0.00  0.00    +0.040 HD
ATOM     27  H   UNL     1       0.702   2.751  -0.013  0.00  0.00    +0.040 HD
BRANCH  25  28
ATOM     28  S   UNL     1      -1.313   3.597   1.047  0.00  0.00    -0.123 S 
BRANCH  28  29
ATOM     29  C   UNL     1      -1.531   4.153  -0.647  0.00  0.00    +0.008 A 
ATOM     30  C   UNL     1      -2.604   3.675  -1.410  0.00  0.00    -0.048 A 
ATOM     31  C   UNL     1      -2.776   4.111  -2.727  0.00  0.00    -0.061 A 
ATOM     32  C   UNL     1      -1.883   5.032  -3.282  0.00  0.00    -0.062 A 
ATOM     33  C   UNL     1      -0.818   5.522  -2.518  0.00  0.00    -0.061 A 
ATOM     34  C   UNL     1      -0.644   5.086  -1.200  0.00  0.00    -0.048 A 
ATOM     35  H   UNL     1      -3.301   2.963  -0.985  0.00  0.00    +0.063 HD
ATOM     36  H   UNL     1      -3.602   3.735  -3.318  0.00  0.00    +0.062 HD
ATOM     37  H   UNL     1      -2.016   5.370  -4.302  0.00  0.00    +0.062 HD
ATOM     38  H   UNL     1      -0.129   6.238  -2.946  0.00  0.00    +0.062 HD
ATOM     39  H   UNL     1       0.181   5.468  -0.613  0.00  0.00    +0.063 HD
ENDBRANCH  28  29
ENDBRANCH  25  28
ENDBRANCH   1  25
BRANCH   1  40
ATOM     40  C   UNL     1       0.306  -0.054  -0.330  0.00  0.00    +0.078 C 
ATOM     41  H   UNL     1      -0.286  -0.897  -0.752  0.00  0.00    +0.062 HD
BRANCH  40  42
ATOM     42  C   UNL     1       1.327   0.365  -1.414  0.00  0.00    +0.001 C 
ATOM     43  H   UNL     1       1.987   1.167  -1.038  0.00  0.00    +0.034 HD
ATOM     44  H   UNL     1       0.780   0.806  -2.277  0.00  0.00    +0.034 HD
BRANCH  42  45
ATOM     45  C   UNL     1       2.128  -0.827  -1.897  0.00  0.00    -0.033 A 
ATOM     46  C   UNL     1       1.560  -1.645  -2.892  0.00  0.00    -0.058 A 
ATOM     47  C   UNL     1       2.200  -2.814  -3.307  0.00  0.00    -0.061 A 
ATOM     48  C   UNL     1       3.409  -3.192  -2.726  0.00  0.00    -0.061 A 
ATOM     49  C   UNL     1       3.986  -2.400  -1.733  0.00  0.00    -0.049 A 
ATOM     50  C   UNL     1       3.365  -1.212  -1.313  0.00  0.00    +0.040 A 
ATOM     51  H   UNL     1       0.608  -1.385  -3.337  0.00  0.00    +0.062 HD
ATOM     52  H   UNL     1       1.752  -3.433  -4.072  0.00  0.00    +0.062 HD
ATOM     53  H   UNL     1       3.901  -4.102  -3.046  0.00  0.00    +0.062 HD
ATOM     54  H   UNL     1       4.931  -2.707  -1.300  0.00  0.00    +0.063 HD
BRANCH  50  55
ATOM     55  C   UNL     1       4.039  -0.406  -0.274  0.00  0.00    +0.245 C 
ATOM     56  O   UNL     1       4.314   0.800  -0.508  0.00  0.00    -0.270 OA
ATOM     57  N   UNL     1       4.415  -1.018   0.974  0.00  0.00    -0.307 N 
ATOM     58  H   UNL     1       4.137  -2.018   1.106  0.00  0.00    +0.150 HD
BRANCH  57  59
ATOM     59  C   UNL     1       5.135  -0.338   2.069  0.00  0.00    +0.026 C 
BRANCH  59  60
ATOM     60  C   UNL     1       6.510   0.156   1.577  0.00  0.00    -0.044 C 
ATOM     61  H   UNL     1       6.407   0.963   0.824  0.00  0.00    +0.025 HD
ATOM     62  H   UNL     1       7.104   0.564   2.424  0.00  0.00    +0.025 HD
ATOM     63  H   UNL     1       7.078  -0.682   1.119  0.00  0.00    +0.025 HD
ENDBRANCH  59  60
BRANCH  59  64
ATOM     64  C   UNL     1       5.359  -1.341   3.220  0.00  0.00    -0.044 C 
ATOM     65  H   UNL     1       4.386  -1.722   3.598  0.00  0.00    +0.025 HD
ATOM     66  H   UNL     1       5.899  -0.862   4.066  0.00  0.00    +0.025 HD
ATOM     67  H   UNL     1       5.959  -2.208   2.868  0.00  0.00    +0.025 HD
ENDBRANCH  59  64
BRANCH  59  68
ATOM     68  C   UNL     1       4.301   0.842   2.606  0.00  0.00    -0.044 C 
ATOM     69  H   UNL     1       4.806   1.311   3.478  0.00  0.00    +0.025 HD
ATOM     70  H   UNL     1       4.162   1.628   1.836  0.00  0.00    +0.025 HD
ATOM     71  H   UNL     1       3.299   0.489   2.930  0.00  0.00    +0.025 HD
ENDBRANCH  59  68
ENDBRANCH  57  59
ENDBRANCH  50  55
ENDBRANCH  42  45
ENDBRANCH  40  42
BRANCH  40  72
ATOM     72  O   UNL     1       0.944  -0.538   0.828  0.00  0.00    -0.390 OA
ATOM     73  H   UNL     1       1.606   0.140   1.116  0.00  0.00    +0.210 HD
ENDBRANCH  40  72
ENDBRANCH   1  40
TORSDOF 18
