REMARK  Name = 
REMARK  15 active torsions:
REMARK  status: ('A' for Active; 'I' for Inactive)
REMARK    1  A    between atoms: C_1  and  C_2
REMARK    2  A    between atoms: C_2  and  C_3
REMARK    3  A    between atoms: C_3  and  C_4
REMARK    4  A    between atoms: C_4  and  C_5
REMARK    5  A    between atoms: C_5  and  C_6
REMARK    6  A    between atoms: C_6  and  C_7
REMARK    7  A    between atoms: C_14  and  O_15
REMARK    8  A    between atoms: C_16  and  C_17
REMARK    9  A    between atoms: C_17  and  C_18
REMARK   10  A    between atoms: C_17  and  C_20
REMARK   11  A    between atoms: C_18  and  C_19
REMARK   12  A    between atoms: C_24  and  N_25
REMARK   13  A    between atoms: N_25  and  S_26
REMARK   14  A    between atoms: S_26  and  C_29
REMARK   15  A    between atoms: C_32  and  C_33
REMARK                            x       y       z     vdW  Elec       q    Type
REMARK                         _______ _______ _______ _____ _____    ______ ____
ROOT
ATOM      1  C   UNL     1      -3.213   0.027  -0.833  0.00  0.00    +0.260 C 
ATOM      2  O   UNL     1      -2.131   0.787  -1.384  0.00  0.00    -0.421 OA
ATOM      3  C   UNL     1      -0.868   0.238  -1.646  0.00  0.00    +0.293 C 
ATOM      4  C   UNL     1      -0.496  -0.925  -1.068  0.00  0.00    +0.123 C 
ATOM      5  C   UNL     1      -1.431  -1.493  -0.071  0.00  0.00    +0.346 C 
ATOM      6  O   UNL     1      -1.091  -2.464   0.656  0.00  0.00    -0.245 OA
ATOM      7  O   UNL     1      -2.692  -0.923   0.099  0.00  0.00    -0.419 OA
ENDROOT
BRANCH   1   8
ATOM      8  C   UNL     1      -4.130   1.020  -0.085  0.00  0.00    +0.029 C 
ATOM      9  H   UNL     1      -3.516   1.537   0.685  0.00  0.00    +0.034 HD
ATOM     10  H   UNL     1      -4.490   1.797  -0.795  0.00  0.00    +0.034 HD
BRANCH   8  11
ATOM     11  C   UNL     1      -5.339   0.369   0.604  0.00  0.00    -0.021 C 
ATOM     12  H   UNL     1      -5.008  -0.488   1.230  0.00  0.00    +0.032 HD
ATOM     13  H   UNL     1      -6.043  -0.021  -0.162  0.00  0.00    +0.032 HD
BRANCH  11  14
ATOM     14  C   UNL     1      -6.058   1.374   1.463  0.00  0.00    -0.047 A 
ATOM     15  C   UNL     1      -5.697   1.541   2.811  0.00  0.00    -0.059 A 
ATOM     16  C   UNL     1      -6.344   2.498   3.599  0.00  0.00    -0.062 A 
ATOM     17  C   UNL     1      -7.346   3.300   3.046  0.00  0.00    -0.062 A 
ATOM     18  C   UNL     1      -7.701   3.149   1.703  0.00  0.00    -0.062 A 
ATOM     19  C   UNL     1      -7.057   2.194   0.911  0.00  0.00    -0.059 A 
ATOM     20  H   UNL     1      -4.916   0.933   3.249  0.00  0.00    +0.062 HD
ATOM     21  H   UNL     1      -6.065   2.621   4.638  0.00  0.00    +0.062 HD
ATOM     22  H   UNL     1      -7.845   4.042   3.658  0.00  0.00    +0.062 HD
ATOM     23  H   UNL     1      -8.473   3.776   1.274  0.00  0.00    +0.062 HD
ATOM     24  H   UNL     1      -7.335   2.093  -0.131  0.00  0.00    +0.062 HD
ENDBRANCH  11  14
ENDBRANCH   8  11
ENDBRANCH   1   8
BRANCH   1  25
ATOM     25  C   UNL     1      -3.950  -0.690  -2.005  0.00  0.00    +0.025 C 
ATOM     26  H   UNL     1      -4.777  -0.048  -2.381  0.00  0.00    +0.034 HD
ATOM     27  H   UNL     1      -3.244  -0.815  -2.857  0.00  0.00    +0.034 HD
BRANCH  25  28
ATOM     28  C   UNL     1      -4.491  -2.089  -1.656  0.00  0.00    -0.049 C 
ATOM     29  H   UNL     1      -5.111  -2.058  -0.738  0.00  0.00    +0.027 HD
ATOM     30  H   UNL     1      -3.641  -2.781  -1.473  0.00  0.00    +0.027 HD
BRANCH  28  31
ATOM     31  C   UNL     1      -5.334  -2.654  -2.795  0.00  0.00    -0.065 C 
ATOM     32  H   UNL     1      -4.730  -2.723  -3.725  0.00  0.00    +0.023 HD
ATOM     33  H   UNL     1      -5.691  -3.670  -2.526  0.00  0.00    +0.023 HD
ATOM     34  H   UNL     1      -6.217  -2.005  -2.979  0.00  0.00    +0.023 HD
ENDBRANCH  28  31
ENDBRANCH  25  28
ENDBRANCH   1  25
BRANCH   4  35
ATOM     35  C   UNL     1       0.858  -1.606  -1.275  0.00  0.00    +0.023 C 
ATOM     36  H   UNL     1       0.661  -2.693  -1.137  0.00  0.00    +0.040 HD
BRANCH  35  37
ATOM     37  C   UNL     1       1.852  -1.159  -0.217  0.00  0.00    -0.038 A 
ATOM     38  C   UNL     1       2.354  -2.089   0.710  0.00  0.00    -0.058 A 
ATOM     39  C   UNL     1       3.268  -1.691   1.687  0.00  0.00    -0.060 A 
ATOM     40  C   UNL     1       3.697  -0.365   1.750  0.00  0.00    -0.039 A 
ATOM     41  C   UNL     1       3.217   0.582   0.828  0.00  0.00    +0.048 A 
ATOM     42  C   UNL     1       2.290   0.177  -0.145  0.00  0.00    -0.036 A 
ATOM     43  H   UNL     1       2.037  -3.124   0.680  0.00  0.00    +0.062 HD
ATOM     44  H   UNL     1       3.644  -2.414   2.399  0.00  0.00    +0.062 HD
ATOM     45  H   UNL     1       4.397  -0.089   2.525  0.00  0.00    +0.064 HD
ATOM     46  H   UNL     1       1.921   0.905  -0.852  0.00  0.00    +0.064 HD
BRANCH  41  47
ATOM     47  N   UNL     1       3.647   1.955   0.857  0.00  0.00    -0.216 N 
ATOM     48  H   UNL     1       3.164   2.651   0.245  0.00  0.00    +0.174 HD
BRANCH  47  49
ATOM     49  S   UNL     1       5.045   2.509   1.724  0.00  0.00    +0.072 S 
ATOM     50  O   UNL     1       5.341   3.928   1.331  0.00  0.00    -0.150 OA
ATOM     51  O   UNL     1       4.761   2.457   3.199  0.00  0.00    -0.150 OA
BRANCH  49  52
ATOM     52  C   UNL     1       6.437   1.508   1.320  0.00  0.00    +0.109 A 
ATOM     53  C   UNL     1       7.369   1.155   2.306  0.00  0.00    -0.034 A 
ATOM     54  C   UNL     1       8.464   0.348   1.982  0.00  0.00    -0.042 A 
ATOM     55  C   UNL     1       8.635  -0.109   0.669  0.00  0.00    +0.052 A 
ATOM     56  C   UNL     1       7.707   0.247  -0.319  0.00  0.00    -0.042 A 
ATOM     57  C   UNL     1       6.613   1.055   0.006  0.00  0.00    -0.034 A 
ATOM     58  H   UNL     1       7.248   1.501   3.325  0.00  0.00    +0.064 HD
ATOM     59  H   UNL     1       9.175   0.081   2.753  0.00  0.00    +0.063 HD
ATOM     60  H   UNL     1       7.830  -0.100  -1.338  0.00  0.00    +0.063 HD
ATOM     61  H   UNL     1       5.902   1.323  -0.766  0.00  0.00    +0.064 HD
BRANCH  55  62
ATOM     62  C   UNL     1       9.761  -0.941   0.335  0.00  0.00    +0.099 C 
ATOM     63  N   UNL     1      10.666  -1.610   0.067  0.00  0.00    -0.191 NA
ENDBRANCH  55  62
ENDBRANCH  49  52
ENDBRANCH  47  49
ENDBRANCH  41  47
ENDBRANCH  35  37
BRANCH  35  64
ATOM     64  C   UNL     1       1.439  -1.491  -2.706  0.00  0.00    -0.045 C 
ATOM     65  H   UNL     1       0.625  -1.633  -3.449  0.00  0.00    +0.027 HD
ATOM     66  H   UNL     1       1.898  -0.495  -2.875  0.00  0.00    +0.027 HD
BRANCH  64  67
ATOM     67  C   UNL     1       2.515  -2.545  -2.973  0.00  0.00    -0.064 C 
ATOM     68  H   UNL     1       3.364  -2.422  -2.268  0.00  0.00    +0.023 HD
ATOM     69  H   UNL     1       2.094  -3.567  -2.865  0.00  0.00    +0.023 HD
ATOM     70  H   UNL     1       2.898  -2.430  -4.009  0.00  0.00    +0.023 HD
ENDBRANCH  64  67
ENDBRANCH  35  64
ENDBRANCH   4  35
BRANCH   3  71
ATOM     71  O   UNL     1      -0.016   0.936  -2.494  0.00  0.00    -0.480 OA
ATOM     72  H   UNL     1      -0.307   1.810  -2.913  0.00  0.00    +0.295 HD
ENDBRANCH   3  71
TORSDOF 15
