REMARK  Name = 
REMARK  15 active torsions:
REMARK  status: ('A' for Active; 'I' for Inactive)
REMARK    1  A    between atoms: C_1  and  C_2
REMARK    2  A    between atoms: C_2  and  C_3
REMARK    3  A    between atoms: C_3  and  C_4
REMARK    4  A    between atoms: C_4  and  C_5
REMARK    5  A    between atoms: C_5  and  C_6
REMARK    6  A    between atoms: C_6  and  C_7
REMARK    7  A    between atoms: C_14  and  O_15
REMARK    8  A    between atoms: C_16  and  C_17
REMARK    9  A    between atoms: C_17  and  C_18
REMARK   10  A    between atoms: C_17  and  C_20
REMARK   11  A    between atoms: C_18  and  C_19
REMARK   12  A    between atoms: C_24  and  N_25
REMARK   13  A    between atoms: N_25  and  S_26
REMARK   14  A    between atoms: S_26  and  C_29
REMARK   15  A    between atoms: C_32  and  C_33
REMARK                            x       y       z     vdW  Elec       q    Type
REMARK                         _______ _______ _______ _____ _____    ______ ____
ROOT
ATOM      1  C   UNL     1      -2.987   0.396  -0.530  0.00  0.00    +0.260 C 
ATOM      2  O   UNL     1      -2.676  -0.542   0.505  0.00  0.00    -0.421 OA
ATOM      3  C   UNL     1      -1.421  -1.154   0.624  0.00  0.00    +0.293 C 
ATOM      4  C   UNL     1      -0.588  -1.215  -0.439  0.00  0.00    +0.123 C 
ATOM      5  C   UNL     1      -1.082  -0.625  -1.706  0.00  0.00    +0.346 C 
ATOM      6  O   UNL     1      -0.414  -0.719  -2.770  0.00  0.00    -0.245 OA
ATOM      7  O   UNL     1      -2.315   0.026  -1.734  0.00  0.00    -0.419 OA
ENDROOT
BRANCH   1   8
ATOM      8  C   UNL     1      -4.508   0.389  -0.783  0.00  0.00    +0.029 C 
ATOM      9  H   UNL     1      -4.764   1.184  -1.519  0.00  0.00    +0.034 HD
ATOM     10  H   UNL     1      -5.042   0.606   0.167  0.00  0.00    +0.034 HD
BRANCH   8  11
ATOM     11  C   UNL     1      -5.003  -0.964  -1.315  0.00  0.00    -0.021 C 
ATOM     12  H   UNL     1      -4.511  -1.196  -2.285  0.00  0.00    +0.032 HD
ATOM     13  H   UNL     1      -4.729  -1.774  -0.604  0.00  0.00    +0.032 HD
BRANCH  11  14
ATOM     14  C   UNL     1      -6.496  -0.941  -1.504  0.00  0.00    -0.047 A 
ATOM     15  C   UNL     1      -7.350  -1.299  -0.446  0.00  0.00    -0.059 A 
ATOM     16  C   UNL     1      -8.737  -1.244  -0.611  0.00  0.00    -0.062 A 
ATOM     17  C   UNL     1      -9.281  -0.822  -1.828  0.00  0.00    -0.062 A 
ATOM     18  C   UNL     1      -8.439  -0.451  -2.879  0.00  0.00    -0.062 A 
ATOM     19  C   UNL     1      -7.051  -0.504  -2.718  0.00  0.00    -0.059 A 
ATOM     20  H   UNL     1      -6.940  -1.618   0.505  0.00  0.00    +0.062 HD
ATOM     21  H   UNL     1      -9.390  -1.524   0.205  0.00  0.00    +0.062 HD
ATOM     22  H   UNL     1     -10.356  -0.778  -1.953  0.00  0.00    +0.062 HD
ATOM     23  H   UNL     1      -8.862  -0.118  -3.818  0.00  0.00    +0.062 HD
ATOM     24  H   UNL     1      -6.409  -0.205  -3.538  0.00  0.00    +0.062 HD
ENDBRANCH  11  14
ENDBRANCH   8  11
ENDBRANCH   1   8
BRANCH   1  25
ATOM     25  C   UNL     1      -2.489   1.803  -0.116  0.00  0.00    +0.025 C 
ATOM     26  H   UNL     1      -1.381   1.756  -0.017  0.00  0.00    +0.034 HD
ATOM     27  H   UNL     1      -2.690   2.527  -0.937  0.00  0.00    +0.034 HD
BRANCH  25  28
ATOM     28  C   UNL     1      -3.061   2.319   1.224  0.00  0.00    -0.049 C 
ATOM     29  H   UNL     1      -2.240   2.792   1.807  0.00  0.00    +0.027 HD
ATOM     30  H   UNL     1      -3.456   1.486   1.845  0.00  0.00    +0.027 HD
BRANCH  28  31
ATOM     31  C   UNL     1      -4.155   3.368   1.025  0.00  0.00    -0.065 C 
ATOM     32  H   UNL     1      -3.743   4.255   0.497  0.00  0.00    +0.023 HD
ATOM     33  H   UNL     1      -4.999   2.956   0.435  0.00  0.00    +0.023 HD
ATOM     34  H   UNL     1      -4.540   3.693   2.014  0.00  0.00    +0.023 HD
ENDBRANCH  28  31
ENDBRANCH  25  28
ENDBRANCH   1  25
BRANCH   4  35
ATOM     35  C   UNL     1       0.836  -1.776  -0.394  0.00  0.00    +0.023 C 
ATOM     36  H   UNL     1       1.041  -2.160  -1.418  0.00  0.00    +0.040 HD
BRANCH  35  37
ATOM     37  C   UNL     1       1.827  -0.667  -0.089  0.00  0.00    -0.038 A 
ATOM     38  C   UNL     1       1.791   0.021   1.137  0.00  0.00    -0.058 A 
ATOM     39  C   UNL     1       2.706   1.040   1.402  0.00  0.00    -0.060 A 
ATOM     40  C   UNL     1       3.671   1.384   0.454  0.00  0.00    -0.039 A 
ATOM     41  C   UNL     1       3.733   0.703  -0.775  0.00  0.00    +0.048 A 
ATOM     42  C   UNL     1       2.802  -0.313  -1.039  0.00  0.00    -0.036 A 
ATOM     43  H   UNL     1       1.056  -0.227   1.889  0.00  0.00    +0.062 HD
ATOM     44  H   UNL     1       2.667   1.568   2.346  0.00  0.00    +0.062 HD
ATOM     45  H   UNL     1       4.358   2.185   0.687  0.00  0.00    +0.064 HD
ATOM     46  H   UNL     1       2.845  -0.836  -1.987  0.00  0.00    +0.064 HD
BRANCH  41  47
ATOM     47  N   UNL     1       4.722   1.023  -1.770  0.00  0.00    -0.216 N 
ATOM     48  H   UNL     1       4.646   0.592  -2.718  0.00  0.00    +0.174 HD
BRANCH  47  49
ATOM     49  S   UNL     1       6.151   1.952  -1.443  0.00  0.00    +0.072 S 
ATOM     50  O   UNL     1       5.764   3.388  -1.222  0.00  0.00    -0.150 OA
ATOM     51  O   UNL     1       7.077   1.871  -2.624  0.00  0.00    -0.150 OA
BRANCH  49  52
ATOM     52  C   UNL     1       6.979   1.304  -0.031  0.00  0.00    +0.109 A 
ATOM     53  C   UNL     1       7.579   2.164   0.899  0.00  0.00    -0.034 A 
ATOM     54  C   UNL     1       8.222   1.643   2.026  0.00  0.00    -0.042 A 
ATOM     55  C   UNL     1       8.271   0.258   2.229  0.00  0.00    +0.052 A 
ATOM     56  C   UNL     1       7.677  -0.604   1.299  0.00  0.00    -0.042 A 
ATOM     57  C   UNL     1       7.035  -0.082   0.171  0.00  0.00    -0.034 A 
ATOM     58  H   UNL     1       7.548   3.237   0.755  0.00  0.00    +0.064 HD
ATOM     59  H   UNL     1       8.680   2.319   2.739  0.00  0.00    +0.063 HD
ATOM     60  H   UNL     1       7.709  -1.677   1.444  0.00  0.00    +0.063 HD
ATOM     61  H   UNL     1       6.578  -0.757  -0.541  0.00  0.00    +0.064 HD
BRANCH  55  62
ATOM     62  C   UNL     1       8.931  -0.279   3.391  0.00  0.00    +0.099 C 
ATOM     63  N   UNL     1       9.461  -0.710   4.324  0.00  0.00    -0.191 NA
ENDBRANCH  55  62
ENDBRANCH  49  52
ENDBRANCH  47  49
ENDBRANCH  41  47
ENDBRANCH  35  37
BRANCH  35  64
ATOM     64  C   UNL     1       1.038  -3.003   0.528  0.00  0.00    -0.045 C 
ATOM     65  H   UNL     1       0.176  -3.697   0.417  0.00  0.00    +0.027 HD
ATOM     66  H   UNL     1       1.108  -2.697   1.593  0.00  0.00    +0.027 HD
BRANCH  64  67
ATOM     67  C   UNL     1       2.315  -3.773   0.186  0.00  0.00    -0.064 C 
ATOM     68  H   UNL     1       3.206  -3.123   0.309  0.00  0.00    +0.023 HD
ATOM     69  H   UNL     1       2.275  -4.148  -0.859  0.00  0.00    +0.023 HD
ATOM     70  H   UNL     1       2.417  -4.644   0.868  0.00  0.00    +0.023 HD
ENDBRANCH  64  67
ENDBRANCH  35  64
ENDBRANCH   4  35
BRANCH   3  71
ATOM     71  O   UNL     1      -1.076  -1.700   1.854  0.00  0.00    -0.480 OA
ATOM     72  H   UNL     1      -1.713  -1.646   2.640  0.00  0.00    +0.295 HD
ENDBRANCH   3  71
TORSDOF 15
