REMARK  Name = 
REMARK  17 active torsions:
REMARK  status: ('A' for Active; 'I' for Inactive)
REMARK    1  A    between atoms: C_1  and  C_2
REMARK    2  A    between atoms: C_2  and  C_3
REMARK    3  A    between atoms: C_2  and  C_4
REMARK    4  A    between atoms: C_4  and  C_5
REMARK    5  A    between atoms: C_5  and  C_6
REMARK    6  A    between atoms: C_6  and  C_7
REMARK    7  A    between atoms: C_10  and  O_11
REMARK    8  A    between atoms: C_17  and  S_18
REMARK    9  A    between atoms: S_18  and  C_19
REMARK   10  A    between atoms: C_21  and  C_22
REMARK   11  A    between atoms: C_23  and  N_24
REMARK   12  A    between atoms: C_25  and  C_27
REMARK   13  A    between atoms: C_34  and  C_35
REMARK   14  A    between atoms: C_35  and  C_36
REMARK   15  A    between atoms: C_35  and  C_37
REMARK   16  A    between atoms: C_35  and  C_38
REMARK   17  A    between atoms: C_39  and  O_40
REMARK                            x       y       z     vdW  Elec       q    Type
REMARK                         _______ _______ _______ _____ _____    ______ ____
ROOT
ATOM      1  S   UNL     1      -0.934  -2.744  -3.269  0.00  0.00    -0.079 S 
ENDROOT
BRANCH   1   6
ATOM      2  C   UNL     1       2.158  -0.203  -0.946  0.00  0.00    +0.123 C 
ATOM      3  C   UNL     1       2.449  -1.733  -0.909  0.00  0.00    +0.051 C 
ATOM      4  C   UNL     1       1.345  -2.514  -1.567  0.00  0.00    +0.180 C 
ATOM      5  O   UNL     1       1.224  -3.740  -1.315  0.00  0.00    -0.291 OA
ATOM      6  C   UNL     1       0.494  -1.875  -2.589  0.00  0.00    +0.135 C 
ATOM      7  C   UNL     1       0.792  -0.630  -2.984  0.00  0.00    +0.297 C 
ATOM      8  O   UNL     1       1.744   0.124  -2.281  0.00  0.00    -0.456 OA
ATOM      9  H   UNL     1       3.380  -1.962  -1.470  0.00  0.00    +0.038 HD
ATOM     10  H   UNL     1       2.594  -2.091   0.131  0.00  0.00    +0.038 HD
BRANCH   2  11
ATOM     11  C   UNL     1       3.500   0.539  -0.666  0.00  0.00    -0.008 C 
ATOM     12  H   UNL     1       3.894   0.269   0.337  0.00  0.00    +0.031 HD
ATOM     13  H   UNL     1       4.249   0.173  -1.405  0.00  0.00    +0.031 HD
BRANCH  11  14
ATOM     14  C   UNL     1       3.439   2.071  -0.795  0.00  0.00    -0.024 C 
ATOM     15  H   UNL     1       2.949   2.508   0.096  0.00  0.00    +0.031 HD
ATOM     16  H   UNL     1       2.846   2.363  -1.689  0.00  0.00    +0.031 HD
BRANCH  14  17
ATOM     17  C   UNL     1       4.827   2.648  -0.900  0.00  0.00    -0.047 A 
ATOM     18  C   UNL     1       5.414   2.857  -2.159  0.00  0.00    -0.055 A 
ATOM     19  C   UNL     1       6.715   3.361  -2.255  0.00  0.00    -0.020 A 
ATOM     20  C   UNL     1       7.444   3.650  -1.097  0.00  0.00    +0.117 A 
ATOM     21  C   UNL     1       6.868   3.431   0.161  0.00  0.00    -0.020 A 
ATOM     22  C   UNL     1       5.567   2.927   0.260  0.00  0.00    -0.055 A 
ATOM     23  H   UNL     1       4.866   2.628  -3.065  0.00  0.00    +0.062 HD
ATOM     24  H   UNL     1       7.158   3.523  -3.229  0.00  0.00    +0.065 HD
ATOM     25  H   UNL     1       7.428   3.646   1.063  0.00  0.00    +0.065 HD
ATOM     26  H   UNL     1       5.138   2.752   1.239  0.00  0.00    +0.062 HD
BRANCH  20  27
ATOM     27  O   UNL     1       8.739   4.152  -1.207  0.00  0.00    -0.507 OA
ATOM     28  H   UNL     1       9.294   4.371  -0.388  0.00  0.00    +0.292 HD
ENDBRANCH  20  27
ENDBRANCH  14  17
ENDBRANCH  11  14
ENDBRANCH   2  11
BRANCH   2  29
ATOM     29  C   UNL     1       0.997   0.140   0.079  0.00  0.00    -0.006 C 
ATOM     30  H   UNL     1       0.255  -0.690   0.038  0.00  0.00    +0.033 HD
BRANCH  29  31
ATOM     31  C   UNL     1       1.451   0.212   1.548  0.00  0.00    -0.059 C 
ATOM     32  H   UNL     1       2.080   1.105   1.734  0.00  0.00    +0.023 HD
ATOM     33  H   UNL     1       2.021  -0.695   1.836  0.00  0.00    +0.023 HD
ATOM     34  H   UNL     1       0.565   0.275   2.215  0.00  0.00    +0.023 HD
ENDBRANCH  29  31
BRANCH  29  35
ATOM     35  C   UNL     1       0.178   1.396  -0.281  0.00  0.00    -0.059 C 
ATOM     36  H   UNL     1       0.772   2.324  -0.203  0.00  0.00    +0.023 HD
ATOM     37  H   UNL     1      -0.238   1.323  -1.306  0.00  0.00    +0.023 HD
ATOM     38  H   UNL     1      -0.685   1.491   0.413  0.00  0.00    +0.023 HD
ENDBRANCH  29  35
ENDBRANCH   2  29
BRANCH   7  39
ATOM     39  O   UNL     1       0.155  -0.062  -4.082  0.00  0.00    -0.479 OA
ATOM     40  H   UNL     1       0.371   0.884  -4.370  0.00  0.00    +0.295 HD
ENDBRANCH   7  39
ENDBRANCH   1   6
BRANCH   1  41
ATOM     41  C   UNL     1      -2.073  -2.015  -2.067  0.00  0.00    +0.017 A 
ATOM     42  C   UNL     1      -2.472  -0.702  -2.361  0.00  0.00    -0.043 A 
ATOM     43  C   UNL     1      -3.063   0.117  -1.397  0.00  0.00    -0.028 A 
ATOM     44  C   UNL     1      -3.276  -0.391  -0.107  0.00  0.00    +0.037 A 
ATOM     45  C   UNL     1      -3.010  -1.740   0.154  0.00  0.00    -0.035 A 
ATOM     46  C   UNL     1      -2.469  -2.611  -0.825  0.00  0.00    -0.026 A 
ATOM     47  H   UNL     1      -2.258  -0.291  -3.339  0.00  0.00    +0.063 HD
ATOM     48  H   UNL     1      -3.267  -2.115   1.134  0.00  0.00    +0.064 HD
BRANCH  44  49
ATOM     49  N   UNL     1      -3.819   0.449   0.925  0.00  0.00    -0.281 N 
ATOM     50  C   UNL     1      -3.232   0.548   2.236  0.00  0.00    +0.250 C 
ATOM     51  O   UNL     1      -2.257  -0.191   2.544  0.00  0.00    -0.270 OA
ATOM     52  H   UNL     1      -4.636   1.051   0.682  0.00  0.00    +0.155 HD
BRANCH  50  53
ATOM     53  C   UNL     1      -3.747   1.512   3.236  0.00  0.00    +0.055 A 
ATOM     54  C   UNL     1      -3.588   1.257   4.608  0.00  0.00    -0.047 A 
ATOM     55  C   UNL     1      -4.066   2.167   5.553  0.00  0.00    -0.043 A 
ATOM     56  C   UNL     1      -4.693   3.335   5.120  0.00  0.00    +0.028 A 
ATOM     57  N   UNL     1      -4.827   3.582   3.791  0.00  0.00    -0.263 NA
ATOM     58  C   UNL     1      -4.374   2.711   2.850  0.00  0.00    +0.040 A 
ATOM     59  H   UNL     1      -3.105   0.350   4.950  0.00  0.00    +0.063 HD
ATOM     60  H   UNL     1      -3.951   1.968   6.610  0.00  0.00    +0.063 HD
ATOM     61  H   UNL     1      -5.067   4.050   5.841  0.00  0.00    +0.083 HD
ATOM     62  H   UNL     1      -4.482   2.975   1.807  0.00  0.00    +0.084 HD
ENDBRANCH  50  53
ENDBRANCH  44  49
BRANCH  43  63
ATOM     63  C   UNL     1      -3.402   1.545  -1.733  0.00  0.00    -0.038 C 
ATOM     64  H   UNL     1      -3.022   1.831  -2.737  0.00  0.00    +0.028 HD
ATOM     65  H   UNL     1      -2.943   2.229  -0.988  0.00  0.00    +0.028 HD
ATOM     66  H   UNL     1      -4.503   1.678  -1.724  0.00  0.00    +0.028 HD
ENDBRANCH  43  63
BRANCH  46  67
ATOM     67  C   UNL     1      -2.436  -4.127  -0.472  0.00  0.00    -0.012 C 
BRANCH  67  68
ATOM     68  C   UNL     1      -3.865  -4.587  -0.079  0.00  0.00    -0.056 C 
ATOM     69  H   UNL     1      -4.579  -4.372  -0.904  0.00  0.00    +0.024 HD
ATOM     70  H   UNL     1      -4.235  -4.087   0.839  0.00  0.00    +0.024 HD
ATOM     71  H   UNL     1      -3.893  -5.678   0.129  0.00  0.00    +0.024 HD
ENDBRANCH  67  68
BRANCH  67  72
ATOM     72  C   UNL     1      -1.493  -4.358   0.730  0.00  0.00    -0.056 C 
ATOM     73  H   UNL     1      -1.879  -3.875   1.651  0.00  0.00    +0.024 HD
ATOM     74  H   UNL     1      -0.488  -3.938   0.525  0.00  0.00    +0.024 HD
ATOM     75  H   UNL     1      -1.384  -5.443   0.945  0.00  0.00    +0.024 HD
ENDBRANCH  67  72
BRANCH  67  76
ATOM     76  C   UNL     1      -1.995  -5.063  -1.619  0.00  0.00    -0.056 C 
ATOM     77  H   UNL     1      -2.590  -4.872  -2.538  0.00  0.00    +0.024 HD
ATOM     78  H   UNL     1      -0.912  -4.975  -1.826  0.00  0.00    +0.024 HD
ATOM     79  H   UNL     1      -2.152  -6.129  -1.344  0.00  0.00    +0.024 HD
ENDBRANCH  67  76
ENDBRANCH  46  67
ENDBRANCH   1  41
TORSDOF 17
