REMARK  Name = 
REMARK  17 active torsions:
REMARK  status: ('A' for Active; 'I' for Inactive)
REMARK    1  A    between atoms: C_1  and  O_2
REMARK    2  A    between atoms: O_2  and  C_3
REMARK    3  A    between atoms: C_6  and  S_7
REMARK    4  A    between atoms: S_7  and  N_10
REMARK    5  A    between atoms: N_10  and  C_11
REMARK    6  A    between atoms: N_10  and  C_15
REMARK    7  A    between atoms: C_11  and  C_12
REMARK    8  A    between atoms: C_12  and  C_13
REMARK    9  A    between atoms: C_12  and  C_14
REMARK   10  A    between atoms: C_15  and  C_16
REMARK   11  A    between atoms: C_16  and  O_17
REMARK   12  A    between atoms: C_16  and  C_18
REMARK   13  A    between atoms: C_18  and  C_19
REMARK   14  A    between atoms: C_18  and  N_26
REMARK   15  A    between atoms: C_19  and  C_20
REMARK   16  A    between atoms: C_27  and  O_29
REMARK   17  A    between atoms: O_29  and  C_30
REMARK                            x       y       z     vdW  Elec       q    Type
REMARK                         _______ _______ _______ _____ _____    ______ ____
ROOT
ATOM      1  C   UNL     1      -0.614  -2.132  -0.754  0.00  0.00    +0.057 C 
ATOM      2  H   UNL     1       0.066  -2.321   0.104  0.00  0.00    +0.053 HD
ENDROOT
BRANCH   1   3
ATOM      3  N   UNL     1      -1.315  -0.856  -0.576  0.00  0.00    -0.275 N 
ATOM      4  C   UNL     1      -1.399  -0.186   0.687  0.00  0.00    +0.401 C 
ATOM      5  O   UNL     1      -0.708  -0.579   1.667  0.00  0.00    -0.226 OA
ATOM      6  H   UNL     1      -1.904  -0.495  -1.361  0.00  0.00    +0.152 HD
BRANCH   4   7
ATOM      7  O   UNL     1      -2.260   0.906   0.822  0.00  0.00    -0.444 OA
BRANCH   7   8
ATOM      8  C   UNL     1      -2.453   1.600   2.057  0.00  0.00    +0.135 C 
ATOM      9  C   UNL     1      -3.189   0.748   3.096  0.00  0.00    +0.088 C 
ATOM     10  O   UNL     1      -4.122   1.553   3.789  0.00  0.00    -0.347 OA
ATOM     11  C   UNL     1      -3.934   2.870   3.326  0.00  0.00    +0.165 C 
ATOM     12  O   UNL     1      -5.115   3.648   3.451  0.00  0.00    -0.351 OA
ATOM     13  C   UNL     1      -6.120   3.225   2.555  0.00  0.00    +0.051 C 
ATOM     14  C   UNL     1      -5.674   3.449   1.114  0.00  0.00    -0.029 C 
ATOM     15  C   UNL     1      -4.457   2.578   0.839  0.00  0.00    -0.040 C 
ATOM     16  C   UNL     1      -3.360   2.802   1.908  0.00  0.00    +0.049 C 
ATOM     17  H   UNL     1      -1.469   1.931   2.462  0.00  0.00    +0.076 HD
ATOM     18  H   UNL     1      -3.738  -0.080   2.598  0.00  0.00    +0.060 HD
ATOM     19  H   UNL     1      -2.467   0.306   3.816  0.00  0.00    +0.060 HD
ATOM     20  H   UNL     1      -3.169   3.348   3.980  0.00  0.00    +0.091 HD
ATOM     21  H   UNL     1      -6.396   2.160   2.730  0.00  0.00    +0.056 HD
ATOM     22  H   UNL     1      -7.031   3.833   2.740  0.00  0.00    +0.056 HD
ATOM     23  H   UNL     1      -6.496   3.176   0.417  0.00  0.00    +0.029 HD
ATOM     24  H   UNL     1      -5.418   4.520   0.960  0.00  0.00    +0.029 HD
ATOM     25  H   UNL     1      -4.790   1.515   0.829  0.00  0.00    +0.027 HD
ATOM     26  H   UNL     1      -4.051   2.815  -0.168  0.00  0.00    +0.027 HD
ATOM     27  H   UNL     1      -2.781   3.722   1.671  0.00  0.00    +0.039 HD
ENDBRANCH   7   8
ENDBRANCH   4   7
ENDBRANCH   1   3
BRANCH   1  28
ATOM     28  C   UNL     1      -1.639  -3.283  -0.805  0.00  0.00    -0.007 C 
ATOM     29  H   UNL     1      -1.113  -4.252  -0.946  0.00  0.00    +0.033 HD
ATOM     30  H   UNL     1      -2.313  -3.148  -1.679  0.00  0.00    +0.033 HD
BRANCH  28  31
ATOM     31  C   UNL     1      -2.445  -3.351   0.468  0.00  0.00    -0.046 A 
ATOM     32  C   UNL     1      -1.891  -3.925   1.624  0.00  0.00    -0.059 A 
ATOM     33  C   UNL     1      -2.613  -3.932   2.822  0.00  0.00    -0.062 A 
ATOM     34  C   UNL     1      -3.889  -3.363   2.874  0.00  0.00    -0.062 A 
ATOM     35  C   UNL     1      -4.445  -2.786   1.729  0.00  0.00    -0.062 A 
ATOM     36  C   UNL     1      -3.725  -2.774   0.531  0.00  0.00    -0.059 A 
ATOM     37  H   UNL     1      -0.898  -4.355   1.600  0.00  0.00    +0.062 HD
ATOM     38  H   UNL     1      -2.182  -4.373   3.711  0.00  0.00    +0.062 HD
ATOM     39  H   UNL     1      -4.445  -3.366   3.803  0.00  0.00    +0.062 HD
ATOM     40  H   UNL     1      -5.429  -2.338   1.773  0.00  0.00    +0.062 HD
ATOM     41  H   UNL     1      -4.160  -2.305  -0.343  0.00  0.00    +0.062 HD
ENDBRANCH  28  31
ENDBRANCH   1  28
BRANCH   1  42
ATOM     42  C   UNL     1       0.248  -2.094  -2.038  0.00  0.00    +0.088 C 
ATOM     43  H   UNL     1      -0.441  -2.002  -2.912  0.00  0.00    +0.063 HD
BRANCH  42  44
ATOM     44  C   UNL     1       1.210  -0.881  -2.069  0.00  0.00    +0.048 C 
ATOM     45  H   UNL     1       0.582   0.016  -2.251  0.00  0.00    +0.047 HD
ATOM     46  H   UNL     1       1.884  -0.950  -2.954  0.00  0.00    +0.047 HD
BRANCH  44  47
ATOM     47  N   UNL     1       1.982  -0.759  -0.810  0.00  0.00    -0.174 NA
BRANCH  47  48
ATOM     48  C   UNL     1       3.277  -1.473  -0.904  0.00  0.00    +0.023 C 
ATOM     49  H   UNL     1       4.022  -0.875  -1.471  0.00  0.00    +0.045 HD
ATOM     50  H   UNL     1       3.156  -2.419  -1.474  0.00  0.00    +0.045 HD
BRANCH  48  51
ATOM     51  C   UNL     1       3.847  -1.847   0.482  0.00  0.00    -0.032 C 
ATOM     52  H   UNL     1       4.144  -0.926   1.022  0.00  0.00    +0.031 HD
BRANCH  51  53
ATOM     53  C   UNL     1       5.117  -2.693   0.319  0.00  0.00    -0.061 C 
ATOM     54  H   UNL     1       5.870  -2.140  -0.282  0.00  0.00    +0.023 HD
ATOM     55  H   UNL     1       4.887  -3.655  -0.189  0.00  0.00    +0.023 HD
ATOM     56  H   UNL     1       5.563  -2.912   1.313  0.00  0.00    +0.023 HD
ENDBRANCH  51  53
BRANCH  51  57
ATOM     57  C   UNL     1       2.816  -2.601   1.333  0.00  0.00    -0.061 C 
ATOM     58  H   UNL     1       2.436  -3.494   0.792  0.00  0.00    +0.023 HD
ATOM     59  H   UNL     1       1.963  -1.935   1.580  0.00  0.00    +0.023 HD
ATOM     60  H   UNL     1       3.272  -2.928   2.292  0.00  0.00    +0.023 HD
ENDBRANCH  51  57
ENDBRANCH  48  51
ENDBRANCH  47  48
BRANCH  47  61
ATOM     61  S   UNL     1       2.220   0.934  -0.404  0.00  0.00    +0.061 S 
ATOM     62  O   UNL     1       2.732   1.056   1.003  0.00  0.00    -0.153 OA
ATOM     63  O   UNL     1       0.908   1.668  -0.466  0.00  0.00    -0.153 OA
BRANCH  61  67
ATOM     64  C   UNL     1       5.162   2.914  -3.300  0.00  0.00    +0.120 A 
ATOM     65  C   UNL     1       3.807   2.765  -3.652  0.00  0.00    -0.018 A 
ATOM     66  C   UNL     1       2.910   2.165  -2.763  0.00  0.00    -0.032 A 
ATOM     67  C   UNL     1       3.351   1.709  -1.514  0.00  0.00    +0.106 A 
ATOM     68  C   UNL     1       4.700   1.856  -1.162  0.00  0.00    -0.032 A 
ATOM     69  C   UNL     1       5.597   2.455  -2.051  0.00  0.00    -0.018 A 
ATOM     70  H   UNL     1       3.437   3.107  -4.609  0.00  0.00    +0.065 HD
ATOM     71  H   UNL     1       1.872   2.055  -3.050  0.00  0.00    +0.064 HD
ATOM     72  H   UNL     1       5.060   1.499  -0.206  0.00  0.00    +0.064 HD
ATOM     73  H   UNL     1       6.637   2.561  -1.768  0.00  0.00    +0.065 HD
BRANCH  64  74
ATOM     74  O   UNL     1       6.101   3.508  -4.156  0.00  0.00    -0.495 OA
BRANCH  74  75
ATOM     75  C   UNL     1       5.799   4.016  -5.451  0.00  0.00    +0.079 C 
ATOM     76  H   UNL     1       5.048   4.830  -5.376  0.00  0.00    +0.066 HD
ATOM     77  H   UNL     1       6.724   4.427  -5.904  0.00  0.00    +0.066 HD
ATOM     78  H   UNL     1       5.416   3.201  -6.101  0.00  0.00    +0.066 HD
ENDBRANCH  74  75
ENDBRANCH  64  74
ENDBRANCH  61  67
ENDBRANCH  47  61
ENDBRANCH  44  47
ENDBRANCH  42  44
BRANCH  42  79
ATOM     79  O   UNL     1       0.971  -3.293  -2.151  0.00  0.00    -0.389 OA
ATOM     80  H   UNL     1       1.260  -3.368  -3.098  0.00  0.00    +0.210 HD
ENDBRANCH  42  79
ENDBRANCH   1  42
TORSDOF 17
