REMARK  Name = 
REMARK  16 active torsions:
REMARK  status: ('A' for Active; 'I' for Inactive)
REMARK    1  A    between atoms: C_1  and  C_2
REMARK    2  A    between atoms: C_2  and  C_3
REMARK    3  A    between atoms: C_2  and  C_4
REMARK    4  A    between atoms: C_4  and  C_5
REMARK    5  A    between atoms: C_5  and  C_6
REMARK    6  A    between atoms: C_6  and  C_7
REMARK    7  A    between atoms: C_19  and  S_20
REMARK    8  A    between atoms: S_20  and  C_21
REMARK    9  A    between atoms: C_23  and  C_24
REMARK   10  A    between atoms: C_25  and  C_26
REMARK   11  A    between atoms: C_26  and  O_27
REMARK   12  A    between atoms: C_29  and  C_30
REMARK   13  A    between atoms: C_30  and  C_31
REMARK   14  A    between atoms: C_30  and  C_32
REMARK   15  A    between atoms: C_30  and  C_33
REMARK   16  A    between atoms: C_34  and  O_35
REMARK                            x       y       z     vdW  Elec       q    Type
REMARK                         _______ _______ _______ _____ _____    ______ ____
ROOT
ATOM      1  C   UNL     1       1.676  -1.078  -0.504  0.00  0.00    +0.123 C 
ATOM      2  C   UNL     1       0.591  -0.117  -1.068  0.00  0.00    +0.051 C 
ATOM      3  C   UNL     1      -0.717  -0.831  -1.230  0.00  0.00    +0.180 C 
ATOM      4  O   UNL     1      -1.467  -0.544  -2.197  0.00  0.00    -0.291 OA
ATOM      5  C   UNL     1      -1.126  -1.830  -0.226  0.00  0.00    +0.135 C 
ATOM      6  C   UNL     1      -0.211  -2.249   0.671  0.00  0.00    +0.297 C 
ATOM      7  O   UNL     1       1.102  -1.752   0.629  0.00  0.00    -0.456 OA
ATOM      8  H   UNL     1       0.419   0.712  -0.348  0.00  0.00    +0.038 HD
ATOM      9  H   UNL     1       0.900   0.332  -2.034  0.00  0.00    +0.038 HD
ENDROOT
BRANCH   1  10
ATOM     10  C   UNL     1       2.909  -0.280   0.037  0.00  0.00    -0.006 C 
ATOM     11  H   UNL     1       2.690   0.036   1.082  0.00  0.00    +0.031 HD
ATOM     12  H   UNL     1       3.792  -0.947   0.106  0.00  0.00    +0.031 HD
BRANCH  10  13
ATOM     13  C   UNL     1       3.295   0.998  -0.737  0.00  0.00    -0.000 C 
ATOM     14  H   UNL     1       2.525   1.784  -0.585  0.00  0.00    +0.033 HD
ATOM     15  H   UNL     1       3.374   0.814  -1.824  0.00  0.00    +0.033 HD
BRANCH  13  16
ATOM     16  C   UNL     1       4.606   1.525  -0.248  0.00  0.00    +0.080 A 
ATOM     17  N   UNL     1       5.799   1.133  -0.760  0.00  0.00    -0.244 NA
ATOM     18  C   UNL     1       6.828   1.714  -0.092  0.00  0.00    +0.078 A 
ATOM     19  C   UNL     1       8.177   1.512  -0.389  0.00  0.00    -0.035 A 
ATOM     20  C   UNL     1       9.145   2.171   0.387  0.00  0.00    -0.060 A 
ATOM     21  C   UNL     1       8.758   3.018   1.445  0.00  0.00    -0.061 A 
ATOM     22  C   UNL     1       7.398   3.213   1.736  0.00  0.00    -0.046 A 
ATOM     23  C   UNL     1       6.458   2.549   0.951  0.00  0.00    +0.039 A 
ATOM     24  S   UNL     1       4.785   2.580   1.066  0.00  0.00    -0.072 S 
ATOM     25  H   UNL     1       8.473   0.859  -1.200  0.00  0.00    +0.064 HD
ATOM     26  H   UNL     1      10.196   2.027   0.172  0.00  0.00    +0.062 HD
ATOM     27  H   UNL     1       9.512   3.520   2.037  0.00  0.00    +0.062 HD
ATOM     28  H   UNL     1       7.090   3.859   2.548  0.00  0.00    +0.063 HD
ENDBRANCH  13  16
ENDBRANCH  10  13
ENDBRANCH   1  10
BRANCH   6  29
ATOM     29  O   UNL     1      -0.520  -3.177   1.668  0.00  0.00    -0.479 OA
ATOM     30  H   UNL     1      -1.428  -3.611   1.768  0.00  0.00    +0.295 HD
ENDBRANCH   6  29
BRANCH   1  31
ATOM     31  C   UNL     1       2.076  -2.178  -1.568  0.00  0.00    -0.006 C 
ATOM     32  H   UNL     1       1.138  -2.588  -2.002  0.00  0.00    +0.033 HD
BRANCH  31  33
ATOM     33  C   UNL     1       2.904  -1.658  -2.755  0.00  0.00    -0.059 C 
ATOM     34  H   UNL     1       3.026  -2.464  -3.509  0.00  0.00    +0.023 HD
ATOM     35  H   UNL     1       3.918  -1.348  -2.427  0.00  0.00    +0.023 HD
ATOM     36  H   UNL     1       2.397  -0.815  -3.264  0.00  0.00    +0.023 HD
ENDBRANCH  31  33
BRANCH  31  37
ATOM     37  C   UNL     1       2.798  -3.387  -0.940  0.00  0.00    -0.059 C 
ATOM     38  H   UNL     1       3.782  -3.101  -0.515  0.00  0.00    +0.023 HD
ATOM     39  H   UNL     1       2.182  -3.851  -0.142  0.00  0.00    +0.023 HD
ATOM     40  H   UNL     1       2.972  -4.167  -1.711  0.00  0.00    +0.023 HD
ENDBRANCH  31  37
ENDBRANCH   1  31
BRANCH   5  41
ATOM     41  S   UNL     1      -2.824  -2.460  -0.203  0.00  0.00    -0.079 S 
BRANCH  41  42
ATOM     42  C   UNL     1      -3.552  -1.000   0.583  0.00  0.00    +0.017 A 
ATOM     43  C   UNL     1      -3.057  -0.673   1.854  0.00  0.00    -0.044 A 
ATOM     44  C   UNL     1      -3.418   0.510   2.503  0.00  0.00    -0.044 A 
ATOM     45  C   UNL     1      -4.337   1.377   1.883  0.00  0.00    -0.019 A 
ATOM     46  C   UNL     1      -4.886   1.026   0.641  0.00  0.00    -0.051 A 
ATOM     47  C   UNL     1      -4.569  -0.191  -0.018  0.00  0.00    -0.028 A 
ATOM     48  H   UNL     1      -2.346  -1.335   2.330  0.00  0.00    +0.063 HD
ATOM     49  H   UNL     1      -5.585   1.728   0.215  0.00  0.00    +0.062 HD
BRANCH  44  50
ATOM     50  C   UNL     1      -2.812   0.821   3.848  0.00  0.00    -0.039 C 
ATOM     51  H   UNL     1      -3.602   0.801   4.628  0.00  0.00    +0.028 HD
ATOM     52  H   UNL     1      -2.332   1.822   3.829  0.00  0.00    +0.028 HD
ATOM     53  H   UNL     1      -2.032   0.082   4.130  0.00  0.00    +0.028 HD
ENDBRANCH  44  50
BRANCH  45  54
ATOM     54  C   UNL     1      -4.728   2.706   2.493  0.00  0.00    +0.069 C 
ATOM     55  H   UNL     1      -5.797   2.916   2.274  0.00  0.00    +0.061 HD
ATOM     56  H   UNL     1      -4.644   2.704   3.601  0.00  0.00    +0.061 HD
BRANCH  54  57
ATOM     57  O   UNL     1      -3.952   3.735   1.942  0.00  0.00    -0.390 OA
ATOM     58  H   UNL     1      -3.059   3.679   2.372  0.00  0.00    +0.210 HD
ENDBRANCH  54  57
ENDBRANCH  45  54
BRANCH  47  59
ATOM     59  C   UNL     1      -5.394  -0.642  -1.267  0.00  0.00    -0.012 C 
BRANCH  59  60
ATOM     60  C   UNL     1      -4.508  -0.731  -2.527  0.00  0.00    -0.056 C 
ATOM     61  H   UNL     1      -3.813  -1.588  -2.498  0.00  0.00    +0.024 HD
ATOM     62  H   UNL     1      -5.128  -0.879  -3.438  0.00  0.00    +0.024 HD
ATOM     63  H   UNL     1      -3.932   0.210  -2.656  0.00  0.00    +0.024 HD
ENDBRANCH  59  60
BRANCH  59  64
ATOM     64  C   UNL     1      -6.548   0.339  -1.617  0.00  0.00    -0.056 C 
ATOM     65  H   UNL     1      -7.148  -0.036  -2.475  0.00  0.00    +0.024 HD
ATOM     66  H   UNL     1      -7.246   0.456  -0.759  0.00  0.00    +0.024 HD
ATOM     67  H   UNL     1      -6.152   1.333  -1.916  0.00  0.00    +0.024 HD
ENDBRANCH  59  64
BRANCH  59  68
ATOM     68  C   UNL     1      -6.068  -2.009  -0.995  0.00  0.00    -0.056 C 
ATOM     69  H   UNL     1      -6.759  -2.283  -1.821  0.00  0.00    +0.024 HD
ATOM     70  H   UNL     1      -5.342  -2.837  -0.915  0.00  0.00    +0.024 HD
ATOM     71  H   UNL     1      -6.654  -1.967  -0.051  0.00  0.00    +0.024 HD
ENDBRANCH  59  68
ENDBRANCH  47  59
ENDBRANCH  41  42
ENDBRANCH   5  41
TORSDOF 16
