REMARK  Name = 
REMARK  15 active torsions:
REMARK  status: ('A' for Active; 'I' for Inactive)
REMARK    1  A    between atoms: C_1  and  O_2
REMARK    2  A    between atoms: O_2  and  C_3
REMARK    3  A    between atoms: C_6  and  S_7
REMARK    4  A    between atoms: S_7  and  N_10
REMARK    5  A    between atoms: N_10  and  C_11
REMARK    6  A    between atoms: N_10  and  O_31
REMARK    7  A    between atoms: C_11  and  C_12
REMARK    8  A    between atoms: C_12  and  O_13
REMARK    9  A    between atoms: C_12  and  C_14
REMARK   10  A    between atoms: C_14  and  C_15
REMARK   11  A    between atoms: C_14  and  N_22
REMARK   12  A    between atoms: C_15  and  C_16
REMARK   13  A    between atoms: C_23  and  O_25
REMARK   14  A    between atoms: O_25  and  C_26
REMARK   15  A    between atoms: O_31  and  C_32
REMARK                            x       y       z     vdW  Elec       q    Type
REMARK                         _______ _______ _______ _____ _____    ______ ____
ROOT
ATOM      1  C   UNL     1       1.157   1.168  -0.534  0.00  0.00    +0.075 C 
ATOM      2  H   UNL     1       1.344   2.031   0.142  0.00  0.00    +0.049 HD
ATOM      3  H   UNL     1       0.523   1.567  -1.353  0.00  0.00    +0.049 HD
ENDROOT
BRANCH   1   4
ATOM      4  C   UNL     1       0.347   0.095   0.245  0.00  0.00    +0.091 C 
ATOM      5  H   UNL     1       0.148  -0.754  -0.443  0.00  0.00    +0.063 HD
BRANCH   4   6
ATOM      6  O   UNL     1       1.100  -0.387   1.331  0.00  0.00    -0.389 OA
ATOM      7  H   UNL     1       1.218   0.365   1.969  0.00  0.00    +0.210 HD
ENDBRANCH   4   6
BRANCH   4   8
ATOM      8  C   UNL     1      -1.027   0.638   0.727  0.00  0.00    +0.057 C 
ATOM      9  H   UNL     1      -0.829   1.537   1.353  0.00  0.00    +0.053 HD
BRANCH   8  10
ATOM     10  N   UNL     1      -1.859   1.033  -0.416  0.00  0.00    -0.275 N 
ATOM     11  C   UNL     1      -2.956   1.946  -0.293  0.00  0.00    +0.401 C 
ATOM     12  O   UNL     1      -3.174   2.537   0.800  0.00  0.00    -0.226 OA
ATOM     13  H   UNL     1      -1.713   0.573  -1.344  0.00  0.00    +0.152 HD
BRANCH  11  14
ATOM     14  O   UNL     1      -3.784   2.168  -1.397  0.00  0.00    -0.445 OA
BRANCH  14  15
ATOM     15  C   UNL     1      -4.952   2.987  -1.343  0.00  0.00    +0.130 C 
ATOM     16  C   UNL     1      -6.060   2.329  -0.574  0.00  0.00    +0.010 C 
ATOM     17  C   UNL     1      -7.304   2.806  -1.298  0.00  0.00    +0.051 C 
ATOM     18  O   UNL     1      -6.962   3.230  -2.599  0.00  0.00    -0.376 OA
ATOM     19  C   UNL     1      -5.560   3.151  -2.720  0.00  0.00    +0.085 C 
ATOM     20  H   UNL     1      -4.715   3.987  -0.914  0.00  0.00    +0.076 HD
ATOM     21  H   UNL     1      -5.982   1.221  -0.647  0.00  0.00    +0.032 HD
ATOM     22  H   UNL     1      -6.060   2.638   0.494  0.00  0.00    +0.032 HD
ATOM     23  H   UNL     1      -7.753   3.662  -0.750  0.00  0.00    +0.056 HD
ATOM     24  H   UNL     1      -8.056   1.990  -1.356  0.00  0.00    +0.056 HD
ATOM     25  H   UNL     1      -5.308   2.280  -3.365  0.00  0.00    +0.060 HD
ATOM     26  H   UNL     1      -5.174   4.073  -3.206  0.00  0.00    +0.060 HD
ENDBRANCH  14  15
ENDBRANCH  11  14
ENDBRANCH   8  10
BRANCH   8  27
ATOM     27  C   UNL     1      -1.789  -0.386   1.603  0.00  0.00    -0.007 C 
ATOM     28  H   UNL     1      -2.719   0.085   1.990  0.00  0.00    +0.033 HD
ATOM     29  H   UNL     1      -1.184  -0.636   2.502  0.00  0.00    +0.033 HD
BRANCH  27  30
ATOM     30  C   UNL     1      -2.147  -1.649   0.855  0.00  0.00    -0.046 A 
ATOM     31  C   UNL     1      -3.323  -1.711   0.088  0.00  0.00    -0.059 A 
ATOM     32  C   UNL     1      -3.631  -2.864  -0.639  0.00  0.00    -0.062 A 
ATOM     33  C   UNL     1      -2.768  -3.963  -0.607  0.00  0.00    -0.062 A 
ATOM     34  C   UNL     1      -1.598  -3.912   0.155  0.00  0.00    -0.062 A 
ATOM     35  C   UNL     1      -1.288  -2.762   0.886  0.00  0.00    -0.059 A 
ATOM     36  H   UNL     1      -3.998  -0.865   0.050  0.00  0.00    +0.062 HD
ATOM     37  H   UNL     1      -4.537  -2.905  -1.230  0.00  0.00    +0.062 HD
ATOM     38  H   UNL     1      -3.007  -4.855  -1.173  0.00  0.00    +0.062 HD
ATOM     39  H   UNL     1      -0.930  -4.763   0.177  0.00  0.00    +0.062 HD
ATOM     40  H   UNL     1      -0.375  -2.735   1.467  0.00  0.00    +0.062 HD
ENDBRANCH  27  30
ENDBRANCH   8  27
ENDBRANCH   4   8
ENDBRANCH   1   4
BRANCH   1  41
ATOM     41  N   UNL     1       2.408   0.672  -1.167  0.00  0.00    -0.052 NA
BRANCH  41  42
ATOM     42  S   UNL     1       3.807   1.483  -0.519  0.00  0.00    +0.083 S 
ATOM     43  O   UNL     1       5.040   1.003  -1.231  0.00  0.00    -0.151 OA
ATOM     44  O   UNL     1       3.678   2.964  -0.746  0.00  0.00    -0.151 OA
BRANCH  42  48
ATOM     45  C   UNL     1       4.167   0.564   3.948  0.00  0.00    +0.120 A 
ATOM     46  C   UNL     1       3.682   1.814   3.519  0.00  0.00    -0.018 A 
ATOM     47  C   UNL     1       3.584   2.102   2.155  0.00  0.00    -0.032 A 
ATOM     48  C   UNL     1       3.970   1.148   1.203  0.00  0.00    +0.108 A 
ATOM     49  C   UNL     1       4.454  -0.095   1.628  0.00  0.00    -0.032 A 
ATOM     50  C   UNL     1       4.552  -0.383   2.992  0.00  0.00    -0.018 A 
ATOM     51  H   UNL     1       3.373   2.568   4.231  0.00  0.00    +0.065 HD
ATOM     52  H   UNL     1       3.197   3.063   1.843  0.00  0.00    +0.064 HD
ATOM     53  H   UNL     1       4.748  -0.844   0.904  0.00  0.00    +0.064 HD
ATOM     54  H   UNL     1       4.925  -1.349   3.308  0.00  0.00    +0.065 HD
BRANCH  45  55
ATOM     55  O   UNL     1       4.280   0.225   5.305  0.00  0.00    -0.495 OA
BRANCH  55  56
ATOM     56  C   UNL     1       3.920   1.086   6.380  0.00  0.00    +0.079 C 
ATOM     57  H   UNL     1       2.841   1.341   6.321  0.00  0.00    +0.066 HD
ATOM     58  H   UNL     1       4.110   0.565   7.341  0.00  0.00    +0.066 HD
ATOM     59  H   UNL     1       4.534   2.012   6.350  0.00  0.00    +0.066 HD
ENDBRANCH  55  56
ENDBRANCH  45  55
ENDBRANCH  42  48
ENDBRANCH  41  42
BRANCH  41  60
ATOM     60  O   UNL     1       2.581  -0.663  -0.957  0.00  0.00    -0.273 OA
BRANCH  60  61
ATOM     61  C   UNL     1       2.343  -1.311  -2.188  0.00  0.00    +0.082 C 
ATOM     62  C   UNL     1       3.611  -1.392  -3.024  0.00  0.00    -0.025 C 
ATOM     63  C   UNL     1       3.457  -2.645  -3.876  0.00  0.00    -0.051 C 
ATOM     64  C   UNL     1       2.427  -3.528  -3.173  0.00  0.00    -0.051 C 
ATOM     65  C   UNL     1       1.950  -2.760  -1.946  0.00  0.00    -0.025 C 
ATOM     66  H   UNL     1       1.527  -0.825  -2.778  0.00  0.00    +0.062 HD
ATOM     67  H   UNL     1       3.735  -0.484  -3.654  0.00  0.00    +0.029 HD
ATOM     68  H   UNL     1       4.498  -1.504  -2.362  0.00  0.00    +0.029 HD
ATOM     69  H   UNL     1       4.431  -3.171  -3.979  0.00  0.00    +0.027 HD
ATOM     70  H   UNL     1       3.089  -2.368  -4.888  0.00  0.00    +0.027 HD
ATOM     71  H   UNL     1       1.569  -3.726  -3.854  0.00  0.00    +0.027 HD
ATOM     72  H   UNL     1       2.877  -4.500  -2.873  0.00  0.00    +0.027 HD
ATOM     73  H   UNL     1       2.468  -3.151  -1.042  0.00  0.00    +0.029 HD
ATOM     74  H   UNL     1       0.852  -2.861  -1.806  0.00  0.00    +0.029 HD
ENDBRANCH  60  61
ENDBRANCH  41  60
ENDBRANCH   1  41
TORSDOF 15
