REMARK  Name = 
REMARK  16 active torsions:
REMARK  status: ('A' for Active; 'I' for Inactive)
REMARK    1  A    between atoms: C_1  and  C_2
REMARK    2  A    between atoms: C_2  and  C_3
REMARK    3  A    between atoms: C_2  and  C_4
REMARK    4  A    between atoms: C_4  and  C_5
REMARK    5  A    between atoms: C_5  and  C_6
REMARK    6  A    between atoms: C_6  and  C_7
REMARK    7  A    between atoms: C_19  and  S_20
REMARK    8  A    between atoms: S_20  and  C_21
REMARK    9  A    between atoms: C_23  and  C_24
REMARK   10  A    between atoms: C_25  and  C_26
REMARK   11  A    between atoms: C_26  and  O_27
REMARK   12  A    between atoms: C_29  and  C_30
REMARK   13  A    between atoms: C_30  and  C_31
REMARK   14  A    between atoms: C_30  and  C_32
REMARK   15  A    between atoms: C_30  and  C_33
REMARK   16  A    between atoms: C_34  and  O_35
REMARK                            x       y       z     vdW  Elec       q    Type
REMARK                         _______ _______ _______ _____ _____    ______ ____
ROOT
ATOM      1  C   UNL     1       1.060   0.810   0.449  0.00  0.00    +0.123 C 
ATOM      2  C   UNL     1       0.586   2.143   1.096  0.00  0.00    +0.051 C 
ATOM      3  C   UNL     1      -0.703   1.947   1.843  0.00  0.00    +0.180 C 
ATOM      4  O   UNL     1      -1.420   2.947   2.107  0.00  0.00    -0.291 OA
ATOM      5  C   UNL     1      -1.065   0.609   2.360  0.00  0.00    +0.135 C 
ATOM      6  C   UNL     1      -0.153  -0.375   2.275  0.00  0.00    +0.297 C 
ATOM      7  O   UNL     1       0.971  -0.215   1.451  0.00  0.00    -0.456 OA
ATOM      8  H   UNL     1       0.466   2.945   0.339  0.00  0.00    +0.038 HD
ATOM      9  H   UNL     1       1.329   2.506   1.834  0.00  0.00    +0.038 HD
ENDROOT
BRANCH   1  10
ATOM     10  C   UNL     1       2.545   0.933  -0.009  0.00  0.00    -0.006 C 
ATOM     11  H   UNL     1       2.682   1.885  -0.569  0.00  0.00    +0.031 HD
ATOM     12  H   UNL     1       2.792   0.104  -0.704  0.00  0.00    +0.031 HD
BRANCH  10  13
ATOM     13  C   UNL     1       3.566   0.882   1.141  0.00  0.00    -0.000 C 
ATOM     14  H   UNL     1       3.397   1.706   1.864  0.00  0.00    +0.033 HD
ATOM     15  H   UNL     1       3.480  -0.081   1.688  0.00  0.00    +0.033 HD
BRANCH  13  16
ATOM     16  C   UNL     1       4.956   1.003   0.604  0.00  0.00    +0.080 A 
ATOM     17  N   UNL     1       5.687  -0.063   0.192  0.00  0.00    -0.244 NA
ATOM     18  C   UNL     1       6.884   0.336  -0.310  0.00  0.00    +0.078 A 
ATOM     19  C   UNL     1       7.858  -0.531  -0.808  0.00  0.00    -0.035 A 
ATOM     20  C   UNL     1       9.055   0.013  -1.306  0.00  0.00    -0.060 A 
ATOM     21  C   UNL     1       9.261   1.408  -1.302  0.00  0.00    -0.061 A 
ATOM     22  C   UNL     1       8.273   2.270  -0.800  0.00  0.00    -0.046 A 
ATOM     23  C   UNL     1       7.098   1.705  -0.311  0.00  0.00    +0.039 A 
ATOM     24  S   UNL     1       5.754   2.474   0.335  0.00  0.00    -0.072 S 
ATOM     25  H   UNL     1       7.697  -1.602  -0.812  0.00  0.00    +0.064 HD
ATOM     26  H   UNL     1       9.822  -0.643  -1.696  0.00  0.00    +0.062 HD
ATOM     27  H   UNL     1      10.186   1.816  -1.689  0.00  0.00    +0.062 HD
ATOM     28  H   UNL     1       8.421   3.342  -0.794  0.00  0.00    +0.063 HD
ENDBRANCH  13  16
ENDBRANCH  10  13
ENDBRANCH   1  10
BRANCH   6  29
ATOM     29  O   UNL     1      -0.266  -1.554   3.008  0.00  0.00    -0.479 OA
ATOM     30  H   UNL     1      -0.938  -1.669   3.755  0.00  0.00    +0.295 HD
ENDBRANCH   6  29
BRANCH   1  31
ATOM     31  C   UNL     1       0.119   0.425  -0.764  0.00  0.00    -0.006 C 
ATOM     32  H   UNL     1      -0.937   0.584  -0.455  0.00  0.00    +0.033 HD
BRANCH  31  33
ATOM     33  C   UNL     1       0.213  -1.065  -1.145  0.00  0.00    -0.059 C 
ATOM     34  H   UNL     1      -0.052  -1.713  -0.284  0.00  0.00    +0.023 HD
ATOM     35  H   UNL     1       1.230  -1.332  -1.498  0.00  0.00    +0.023 HD
ATOM     36  H   UNL     1      -0.508  -1.296  -1.958  0.00  0.00    +0.023 HD
ENDBRANCH  31  33
BRANCH  31  37
ATOM     37  C   UNL     1       0.332   1.289  -2.022  0.00  0.00    -0.059 C 
ATOM     38  H   UNL     1      -0.439   1.043  -2.783  0.00  0.00    +0.023 HD
ATOM     39  H   UNL     1       1.328   1.102  -2.474  0.00  0.00    +0.023 HD
ATOM     40  H   UNL     1       0.233   2.368  -1.796  0.00  0.00    +0.023 HD
ENDBRANCH  31  37
ENDBRANCH   1  31
BRANCH   5  41
ATOM     41  S   UNL     1      -2.718   0.323   3.037  0.00  0.00    -0.079 S 
BRANCH  41  42
ATOM     42  C   UNL     1      -3.481   0.102   1.405  0.00  0.00    +0.017 A 
ATOM     43  C   UNL     1      -3.717   1.290   0.698  0.00  0.00    -0.044 A 
ATOM     44  C   UNL     1      -3.985   1.288  -0.674  0.00  0.00    -0.044 A 
ATOM     45  C   UNL     1      -4.056   0.060  -1.356  0.00  0.00    -0.019 A 
ATOM     46  C   UNL     1      -3.915  -1.133  -0.635  0.00  0.00    -0.051 A 
ATOM     47  C   UNL     1      -3.739  -1.155   0.770  0.00  0.00    -0.028 A 
ATOM     48  H   UNL     1      -3.634   2.235   1.215  0.00  0.00    +0.063 HD
ATOM     49  H   UNL     1      -3.962  -2.060  -1.189  0.00  0.00    +0.062 HD
BRANCH  44  50
ATOM     50  C   UNL     1      -4.149   2.602  -1.395  0.00  0.00    -0.039 C 
ATOM     51  H   UNL     1      -5.186   2.691  -1.780  0.00  0.00    +0.028 HD
ATOM     52  H   UNL     1      -3.432   2.664  -2.240  0.00  0.00    +0.028 HD
ATOM     53  H   UNL     1      -3.955   3.466  -0.725  0.00  0.00    +0.028 HD
ENDBRANCH  44  50
BRANCH  45  54
ATOM     54  C   UNL     1      -4.255  -0.010  -2.853  0.00  0.00    +0.069 C 
ATOM     55  H   UNL     1      -4.656  -1.003  -3.161  0.00  0.00    +0.061 HD
ATOM     56  H   UNL     1      -5.009   0.736  -3.177  0.00  0.00    +0.061 HD
BRANCH  54  57
ATOM     57  O   UNL     1      -3.047   0.247  -3.513  0.00  0.00    -0.390 OA
ATOM     58  H   UNL     1      -2.496  -0.574  -3.423  0.00  0.00    +0.210 HD
ENDBRANCH  54  57
ENDBRANCH  45  54
BRANCH  47  59
ATOM     59  C   UNL     1      -3.876  -2.532   1.483  0.00  0.00    -0.012 C 
BRANCH  59  60
ATOM     60  C   UNL     1      -2.642  -3.397   1.163  0.00  0.00    -0.056 C 
ATOM     61  H   UNL     1      -1.714  -2.879   1.470  0.00  0.00    +0.024 HD
ATOM     62  H   UNL     1      -2.696  -4.372   1.694  0.00  0.00    +0.024 HD
ATOM     63  H   UNL     1      -2.569  -3.602   0.074  0.00  0.00    +0.024 HD
ENDBRANCH  59  60
BRANCH  59  64
ATOM     64  C   UNL     1      -5.145  -3.269   0.966  0.00  0.00    -0.056 C 
ATOM     65  H   UNL     1      -6.040  -2.618   1.075  0.00  0.00    +0.024 HD
ATOM     66  H   UNL     1      -5.059  -3.578  -0.095  0.00  0.00    +0.024 HD
ATOM     67  H   UNL     1      -5.327  -4.207   1.533  0.00  0.00    +0.024 HD
ENDBRANCH  59  64
BRANCH  59  68
ATOM     68  C   UNL     1      -4.049  -2.443   3.019  0.00  0.00    -0.056 C 
ATOM     69  H   UNL     1      -4.392  -3.410   3.445  0.00  0.00    +0.024 HD
ATOM     70  H   UNL     1      -4.803  -1.673   3.288  0.00  0.00    +0.024 HD
ATOM     71  H   UNL     1      -3.092  -2.242   3.529  0.00  0.00    +0.024 HD
ENDBRANCH  59  68
ENDBRANCH  47  59
ENDBRANCH  41  42
ENDBRANCH   5  41
TORSDOF 16
