REMARK  Name = 
REMARK  18 active torsions:
REMARK  status: ('A' for Active; 'I' for Inactive)
REMARK    1  A    between atoms: C_1  and  C_2
REMARK    2  A    between atoms: N_4  and  C_5
REMARK    3  A    between atoms: C_5  and  C_6
REMARK    4  A    between atoms: C_5  and  C_10
REMARK    5  A    between atoms: C_6  and  C_7
REMARK    6  A    between atoms: N_12  and  C_13
REMARK    7  A    between atoms: C_13  and  C_14
REMARK    8  A    between atoms: C_13  and  C_22
REMARK    9  A    between atoms: C_14  and  S_15
REMARK   10  A    between atoms: S_15  and  C_16
REMARK   11  A    between atoms: C_22  and  O_23
REMARK   12  A    between atoms: C_22  and  C_24
REMARK   13  A    between atoms: C_24  and  C_25
REMARK   14  A    between atoms: C_30  and  C_31
REMARK   15  A    between atoms: N_33  and  C_34
REMARK   16  A    between atoms: C_34  and  C_35
REMARK   17  A    between atoms: C_34  and  C_36
REMARK   18  A    between atoms: C_34  and  C_37
REMARK                            x       y       z     vdW  Elec       q    Type
REMARK                         _______ _______ _______ _____ _____    ______ ____
ROOT
ATOM      1  C   UNL     1      -0.861  -0.800   0.105  0.00  0.00    +0.059 C 
ATOM      2  H   UNL     1      -0.582  -1.211  -0.891  0.00  0.00    +0.053 HD
ENDROOT
BRANCH   1   5
ATOM      3  C   UNL     1      -2.903  -2.306  -0.057  0.00  0.00    +0.234 C 
ATOM      4  O   UNL     1      -2.269  -3.138  -0.762  0.00  0.00    -0.274 OA
ATOM      5  N   UNL     1      -2.282  -1.075   0.344  0.00  0.00    -0.308 N 
ATOM      6  H   UNL     1      -2.839  -0.397   0.912  0.00  0.00    +0.149 HD
BRANCH   3   7
ATOM      7  C   UNL     1      -4.322  -2.609   0.349  0.00  0.00    +0.108 C 
ATOM      8  H   UNL     1      -4.556  -3.673   0.116  0.00  0.00    +0.060 HD
BRANCH   7  11
ATOM      9  C   UNL     1      -3.833  -3.258   2.755  0.00  0.00    +0.211 C 
ATOM     10  O   UNL     1      -3.144  -4.244   2.376  0.00  0.00    -0.276 OA
ATOM     11  N   UNL     1      -4.475  -2.408   1.793  0.00  0.00    -0.304 N 
ATOM     12  H   UNL     1      -5.048  -1.607   2.147  0.00  0.00    +0.149 HD
BRANCH   9  13
ATOM     13  C   UNL     1      -3.950  -2.955   4.212  0.00  0.00    +0.012 C 
ATOM     14  H   UNL     1      -3.364  -2.043   4.447  0.00  0.00    +0.032 HD
ATOM     15  H   UNL     1      -3.563  -3.801   4.819  0.00  0.00    +0.032 HD
ATOM     16  H   UNL     1      -5.015  -2.784   4.476  0.00  0.00    +0.032 HD
ENDBRANCH   9  13
ENDBRANCH   7  11
BRANCH   7  17
ATOM     17  C   UNL     1      -5.314  -1.721  -0.424  0.00  0.00    +0.051 C 
ATOM     18  H   UNL     1      -5.088  -0.646  -0.251  0.00  0.00    +0.038 HD
ATOM     19  H   UNL     1      -6.342  -1.906  -0.044  0.00  0.00    +0.038 HD
BRANCH  17  20
ATOM     20  C   UNL     1      -5.289  -2.014  -1.897  0.00  0.00    +0.213 C 
ATOM     21  N   UNL     1      -4.453  -1.257  -2.772  0.00  0.00    -0.329 N 
ATOM     22  O   UNL     1      -5.982  -2.959  -2.359  0.00  0.00    -0.276 OA
ATOM     23  H   UNL     1      -3.857  -0.483  -2.403  0.00  0.00    +0.145 HD
ATOM     24  H   UNL     1      -4.425  -1.474  -3.793  0.00  0.00    +0.145 HD
ENDBRANCH  17  20
ENDBRANCH   7  17
ENDBRANCH   3   7
ENDBRANCH   1   5
BRANCH   1  25
ATOM     25  C   UNL     1      -0.620   0.720   0.043  0.00  0.00    +0.019 C 
ATOM     26  H   UNL     1      -0.880   1.199   1.010  0.00  0.00    +0.040 HD
ATOM     27  H   UNL     1       0.445   0.917  -0.178  0.00  0.00    +0.040 HD
BRANCH  25  28
ATOM     28  S   UNL     1      -1.639   1.479  -1.272  0.00  0.00    -0.123 S 
BRANCH  28  29
ATOM     29  C   UNL     1      -0.767   3.046  -1.222  0.00  0.00    +0.008 A 
ATOM     30  C   UNL     1       0.243   3.311  -2.156  0.00  0.00    -0.048 A 
ATOM     31  C   UNL     1       0.941   4.522  -2.108  0.00  0.00    -0.061 A 
ATOM     32  C   UNL     1       0.627   5.472  -1.130  0.00  0.00    -0.062 A 
ATOM     33  C   UNL     1      -0.389   5.213  -0.204  0.00  0.00    -0.061 A 
ATOM     34  C   UNL     1      -1.089   4.004  -0.252  0.00  0.00    -0.048 A 
ATOM     35  H   UNL     1       0.490   2.579  -2.913  0.00  0.00    +0.063 HD
ATOM     36  H   UNL     1       1.727   4.722  -2.824  0.00  0.00    +0.062 HD
ATOM     37  H   UNL     1       1.170   6.407  -1.091  0.00  0.00    +0.062 HD
ATOM     38  H   UNL     1      -0.632   5.949   0.551  0.00  0.00    +0.062 HD
ATOM     39  H   UNL     1      -1.871   3.807   0.470  0.00  0.00    +0.063 HD
ENDBRANCH  28  29
ENDBRANCH  25  28
ENDBRANCH   1  25
BRANCH   1  40
ATOM     40  C   UNL     1      -0.016  -1.518   1.194  0.00  0.00    +0.078 C 
ATOM     41  H   UNL     1      -0.274  -2.597   1.143  0.00  0.00    +0.062 HD
BRANCH  40  42
ATOM     42  C   UNL     1       1.518  -1.410   0.999  0.00  0.00    +0.001 C 
ATOM     43  H   UNL     1       2.018  -2.005   1.794  0.00  0.00    +0.034 HD
ATOM     44  H   UNL     1       1.823  -0.363   1.170  0.00  0.00    +0.034 HD
BRANCH  42  45
ATOM     45  C   UNL     1       1.986  -1.937  -0.347  0.00  0.00    -0.033 A 
ATOM     46  C   UNL     1       1.755  -3.293  -0.648  0.00  0.00    -0.058 A 
ATOM     47  C   UNL     1       2.067  -3.810  -1.906  0.00  0.00    -0.061 A 
ATOM     48  C   UNL     1       2.620  -2.986  -2.883  0.00  0.00    -0.061 A 
ATOM     49  C   UNL     1       2.890  -1.648  -2.597  0.00  0.00    -0.049 A 
ATOM     50  C   UNL     1       2.605  -1.113  -1.329  0.00  0.00    +0.040 A 
ATOM     51  H   UNL     1       1.317  -3.953   0.090  0.00  0.00    +0.062 HD
ATOM     52  H   UNL     1       1.871  -4.852  -2.126  0.00  0.00    +0.062 HD
ATOM     53  H   UNL     1       2.856  -3.389  -3.860  0.00  0.00    +0.062 HD
ATOM     54  H   UNL     1       3.349  -1.032  -3.361  0.00  0.00    +0.063 HD
BRANCH  50  55
ATOM     55  C   UNL     1       2.995   0.289  -1.071  0.00  0.00    +0.245 C 
ATOM     56  O   UNL     1       2.654   1.178  -1.896  0.00  0.00    -0.270 OA
ATOM     57  N   UNL     1       3.816   0.620   0.065  0.00  0.00    -0.307 N 
ATOM     58  H   UNL     1       4.227  -0.185   0.593  0.00  0.00    +0.150 HD
BRANCH  57  59
ATOM     59  C   UNL     1       4.069   1.989   0.556  0.00  0.00    +0.026 C 
BRANCH  59  60
ATOM     60  C   UNL     1       4.915   1.911   1.843  0.00  0.00    -0.044 C 
ATOM     61  H   UNL     1       5.118   2.926   2.248  0.00  0.00    +0.025 HD
ATOM     62  H   UNL     1       5.889   1.415   1.637  0.00  0.00    +0.025 HD
ATOM     63  H   UNL     1       4.383   1.323   2.622  0.00  0.00    +0.025 HD
ENDBRANCH  59  60
BRANCH  59  64
ATOM     64  C   UNL     1       2.737   2.690   0.890  0.00  0.00    -0.044 C 
ATOM     65  H   UNL     1       2.922   3.698   1.321  0.00  0.00    +0.025 HD
ATOM     66  H   UNL     1       2.117   2.822  -0.017  0.00  0.00    +0.025 HD
ATOM     67  H   UNL     1       2.157   2.093   1.625  0.00  0.00    +0.025 HD
ENDBRANCH  59  64
BRANCH  59  68
ATOM     68  C   UNL     1       4.849   2.800  -0.496  0.00  0.00    -0.044 C 
ATOM     69  H   UNL     1       5.761   2.247  -0.810  0.00  0.00    +0.025 HD
ATOM     70  H   UNL     1       4.234   3.003  -1.396  0.00  0.00    +0.025 HD
ATOM     71  H   UNL     1       5.160   3.783  -0.081  0.00  0.00    +0.025 HD
ENDBRANCH  59  68
ENDBRANCH  57  59
ENDBRANCH  50  55
ENDBRANCH  42  45
ENDBRANCH  40  42
BRANCH  40  72
ATOM     72  O   UNL     1      -0.387  -1.089   2.482  0.00  0.00    -0.390 OA
ATOM     73  H   UNL     1      -0.003  -0.186   2.630  0.00  0.00    +0.210 HD
ENDBRANCH  40  72
ENDBRANCH   1  40
TORSDOF 18
