REMARK  Name = 
REMARK  18 active torsions:
REMARK  status: ('A' for Active; 'I' for Inactive)
REMARK    1  A    between atoms: C_1  and  C_2
REMARK    2  A    between atoms: N_4  and  C_5
REMARK    3  A    between atoms: C_5  and  C_6
REMARK    4  A    between atoms: C_5  and  C_10
REMARK    5  A    between atoms: C_6  and  C_7
REMARK    6  A    between atoms: N_12  and  C_13
REMARK    7  A    between atoms: C_13  and  C_14
REMARK    8  A    between atoms: C_13  and  C_22
REMARK    9  A    between atoms: C_14  and  S_15
REMARK   10  A    between atoms: S_15  and  C_16
REMARK   11  A    between atoms: C_22  and  O_23
REMARK   12  A    between atoms: C_22  and  C_24
REMARK   13  A    between atoms: C_24  and  C_25
REMARK   14  A    between atoms: C_30  and  C_31
REMARK   15  A    between atoms: N_33  and  C_34
REMARK   16  A    between atoms: C_34  and  C_35
REMARK   17  A    between atoms: C_34  and  C_36
REMARK   18  A    between atoms: C_34  and  C_37
REMARK                            x       y       z     vdW  Elec       q    Type
REMARK                         _______ _______ _______ _____ _____    ______ ____
ROOT
ATOM      1  C   UNL     1      -1.258   1.532   0.171  0.00  0.00    +0.059 C 
ATOM      2  H   UNL     1      -1.686   1.895  -0.787  0.00  0.00    +0.053 HD
ENDROOT
BRANCH   1   5
ATOM      3  C   UNL     1      -1.793  -0.703  -0.903  0.00  0.00    +0.234 C 
ATOM      4  O   UNL     1      -1.437  -0.320  -2.050  0.00  0.00    -0.274 OA
ATOM      5  N   UNL     1      -1.472   0.084   0.253  0.00  0.00    -0.308 N 
ATOM      6  H   UNL     1      -1.520  -0.367   1.195  0.00  0.00    +0.149 HD
BRANCH   3   7
ATOM      7  C   UNL     1      -2.613  -1.958  -0.762  0.00  0.00    +0.108 C 
ATOM      8  H   UNL     1      -2.708  -2.456  -1.754  0.00  0.00    +0.060 HD
BRANCH   7  11
ATOM      9  C   UNL     1      -0.786  -3.629  -0.202  0.00  0.00    +0.211 C 
ATOM     10  O   UNL     1      -0.263  -3.479  -1.340  0.00  0.00    -0.276 OA
ATOM     11  N   UNL     1      -1.954  -2.882   0.164  0.00  0.00    -0.304 N 
ATOM     12  H   UNL     1      -2.343  -3.014   1.126  0.00  0.00    +0.149 HD
BRANCH   9  13
ATOM     13  C   UNL     1      -0.170  -4.572   0.778  0.00  0.00    +0.012 C 
ATOM     14  H   UNL     1      -0.953  -5.233   1.205  0.00  0.00    +0.032 HD
ATOM     15  H   UNL     1       0.597  -5.205   0.282  0.00  0.00    +0.032 HD
ATOM     16  H   UNL     1       0.307  -3.995   1.596  0.00  0.00    +0.032 HD
ENDBRANCH   9  13
ENDBRANCH   7  11
BRANCH   7  17
ATOM     17  C   UNL     1      -4.032  -1.623  -0.263  0.00  0.00    +0.051 C 
ATOM     18  H   UNL     1      -3.983  -1.132   0.734  0.00  0.00    +0.038 HD
ATOM     19  H   UNL     1      -4.608  -2.566  -0.138  0.00  0.00    +0.038 HD
BRANCH  17  20
ATOM     20  C   UNL     1      -4.768  -0.735  -1.226  0.00  0.00    +0.213 C 
ATOM     21  N   UNL     1      -5.362  -1.281  -2.403  0.00  0.00    -0.329 N 
ATOM     22  O   UNL     1      -4.831   0.505  -1.011  0.00  0.00    -0.276 OA
ATOM     23  H   UNL     1      -5.303  -2.304  -2.603  0.00  0.00    +0.145 HD
ATOM     24  H   UNL     1      -5.859  -0.660  -3.079  0.00  0.00    +0.145 HD
ENDBRANCH  17  20
ENDBRANCH   7  17
ENDBRANCH   3   7
ENDBRANCH   1   5
BRANCH   1  25
ATOM     25  C   UNL     1      -2.049   2.234   1.294  0.00  0.00    +0.019 C 
ATOM     26  H   UNL     1      -3.078   1.817   1.339  0.00  0.00    +0.040 HD
ATOM     27  H   UNL     1      -1.589   2.035   2.283  0.00  0.00    +0.040 HD
BRANCH  25  28
ATOM     28  S   UNL     1      -2.143   4.048   1.055  0.00  0.00    -0.123 S 
BRANCH  28  29
ATOM     29  C   UNL     1      -3.495   3.988  -0.127  0.00  0.00    +0.008 A 
ATOM     30  C   UNL     1      -3.231   4.033  -1.503  0.00  0.00    -0.048 A 
ATOM     31  C   UNL     1      -4.285   3.975  -2.421  0.00  0.00    -0.061 A 
ATOM     32  C   UNL     1      -5.604   3.884  -1.967  0.00  0.00    -0.062 A 
ATOM     33  C   UNL     1      -5.871   3.856  -0.595  0.00  0.00    -0.061 A 
ATOM     34  C   UNL     1      -4.819   3.912   0.325  0.00  0.00    -0.048 A 
ATOM     35  H   UNL     1      -2.212   4.106  -1.861  0.00  0.00    +0.063 HD
ATOM     36  H   UNL     1      -4.078   4.002  -3.483  0.00  0.00    +0.062 HD
ATOM     37  H   UNL     1      -6.419   3.839  -2.678  0.00  0.00    +0.062 HD
ATOM     38  H   UNL     1      -6.893   3.788  -0.244  0.00  0.00    +0.062 HD
ATOM     39  H   UNL     1      -5.032   3.885   1.386  0.00  0.00    +0.063 HD
ENDBRANCH  28  29
ENDBRANCH  25  28
ENDBRANCH   1  25
BRANCH   1  40
ATOM     40  C   UNL     1       0.257   1.874   0.169  0.00  0.00    +0.078 C 
ATOM     41  H   UNL     1       0.367   2.977   0.284  0.00  0.00    +0.062 HD
BRANCH  40  42
ATOM     42  C   UNL     1       1.040   1.195   1.315  0.00  0.00    +0.001 C 
ATOM     43  H   UNL     1       1.008   0.092   1.211  0.00  0.00    +0.034 HD
ATOM     44  H   UNL     1       0.555   1.414   2.288  0.00  0.00    +0.034 HD
BRANCH  42  45
ATOM     45  C   UNL     1       2.465   1.707   1.383  0.00  0.00    -0.033 A 
ATOM     46  C   UNL     1       2.675   2.982   1.941  0.00  0.00    -0.058 A 
ATOM     47  C   UNL     1       3.961   3.509   2.060  0.00  0.00    -0.061 A 
ATOM     48  C   UNL     1       5.059   2.771   1.627  0.00  0.00    -0.061 A 
ATOM     49  C   UNL     1       4.876   1.505   1.070  0.00  0.00    -0.049 A 
ATOM     50  C   UNL     1       3.587   0.956   0.935  0.00  0.00    +0.040 A 
ATOM     51  H   UNL     1       1.835   3.571   2.292  0.00  0.00    +0.062 HD
ATOM     52  H   UNL     1       4.106   4.491   2.492  0.00  0.00    +0.062 HD
ATOM     53  H   UNL     1       6.056   3.182   1.718  0.00  0.00    +0.062 HD
ATOM     54  H   UNL     1       5.746   0.959   0.726  0.00  0.00    +0.063 HD
BRANCH  50  55
ATOM     55  C   UNL     1       3.468  -0.390   0.327  0.00  0.00    +0.245 C 
ATOM     56  O   UNL     1       2.592  -0.601  -0.553  0.00  0.00    -0.270 OA
ATOM     57  N   UNL     1       4.378  -1.437   0.715  0.00  0.00    -0.307 N 
ATOM     58  H   UNL     1       5.005  -1.238   1.529  0.00  0.00    +0.150 HD
BRANCH  57  59
ATOM     59  C   UNL     1       4.492  -2.751   0.051  0.00  0.00    +0.026 C 
BRANCH  59  60
ATOM     60  C   UNL     1       5.626  -3.555   0.720  0.00  0.00    -0.044 C 
ATOM     61  H   UNL     1       5.408  -3.709   1.800  0.00  0.00    +0.025 HD
ATOM     62  H   UNL     1       5.742  -4.552   0.242  0.00  0.00    +0.025 HD
ATOM     63  H   UNL     1       6.591  -3.011   0.634  0.00  0.00    +0.025 HD
ENDBRANCH  59  60
BRANCH  59  64
ATOM     64  C   UNL     1       4.839  -2.567  -1.440  0.00  0.00    -0.044 C 
ATOM     65  H   UNL     1       4.011  -2.078  -1.993  0.00  0.00    +0.025 HD
ATOM     66  H   UNL     1       5.749  -1.939  -1.548  0.00  0.00    +0.025 HD
ATOM     67  H   UNL     1       5.028  -3.550  -1.922  0.00  0.00    +0.025 HD
ENDBRANCH  59  64
BRANCH  59  68
ATOM     68  C   UNL     1       3.179  -3.539   0.203  0.00  0.00    -0.044 C 
ATOM     69  H   UNL     1       2.348  -3.054  -0.348  0.00  0.00    +0.025 HD
ATOM     70  H   UNL     1       3.290  -4.569  -0.201  0.00  0.00    +0.025 HD
ATOM     71  H   UNL     1       2.895  -3.609   1.274  0.00  0.00    +0.025 HD
ENDBRANCH  59  68
ENDBRANCH  57  59
ENDBRANCH  50  55
ENDBRANCH  42  45
ENDBRANCH  40  42
BRANCH  40  72
ATOM     72  O   UNL     1       0.819   1.491  -1.060  0.00  0.00    -0.390 OA
ATOM     73  H   UNL     1       0.544   2.170  -1.730  0.00  0.00    +0.210 HD
ENDBRANCH  40  72
ENDBRANCH   1  40
TORSDOF 18
