REMARK  Name = 
REMARK  17 active torsions:
REMARK  status: ('A' for Active; 'I' for Inactive)
REMARK    1  A    between atoms: C_1  and  C_2
REMARK    2  A    between atoms: C_2  and  C_3
REMARK    3  A    between atoms: C_2  and  C_4
REMARK    4  A    between atoms: C_4  and  C_5
REMARK    5  A    between atoms: C_5  and  C_6
REMARK    6  A    between atoms: C_6  and  C_7
REMARK    7  A    between atoms: C_10  and  O_11
REMARK    8  A    between atoms: C_17  and  S_18
REMARK    9  A    between atoms: S_18  and  C_19
REMARK   10  A    between atoms: C_21  and  C_22
REMARK   11  A    between atoms: C_23  and  N_24
REMARK   12  A    between atoms: C_25  and  C_27
REMARK   13  A    between atoms: C_34  and  C_35
REMARK   14  A    between atoms: C_35  and  C_36
REMARK   15  A    between atoms: C_35  and  C_37
REMARK   16  A    between atoms: C_35  and  C_38
REMARK   17  A    between atoms: C_39  and  O_40
REMARK                            x       y       z     vdW  Elec       q    Type
REMARK                         _______ _______ _______ _____ _____    ______ ____
ROOT
ATOM      1  S   UNL     1       0.441   1.438   3.690  0.00  0.00    -0.079 S 
ENDROOT
BRANCH   1   6
ATOM      2  C   UNL     1      -2.446   0.968  -0.003  0.00  0.00    +0.123 C 
ATOM      3  C   UNL     1      -2.687  -0.005   1.195  0.00  0.00    +0.051 C 
ATOM      4  C   UNL     1      -1.665   0.126   2.287  0.00  0.00    +0.180 C 
ATOM      5  O   UNL     1      -1.616  -0.761   3.178  0.00  0.00    -0.291 OA
ATOM      6  C   UNL     1      -0.816   1.324   2.394  0.00  0.00    +0.135 C 
ATOM      7  C   UNL     1      -1.027   2.343   1.554  0.00  0.00    +0.297 C 
ATOM      8  O   UNL     1      -1.909   2.212   0.473  0.00  0.00    -0.456 OA
ATOM      9  H   UNL     1      -3.672   0.196   1.668  0.00  0.00    +0.038 HD
ATOM     10  H   UNL     1      -2.707  -1.058   0.839  0.00  0.00    +0.038 HD
BRANCH   2  11
ATOM     11  C   UNL     1      -3.828   1.320  -0.635  0.00  0.00    -0.008 C 
ATOM     12  H   UNL     1      -4.476   1.757   0.157  0.00  0.00    +0.031 HD
ATOM     13  H   UNL     1      -3.707   2.130  -1.385  0.00  0.00    +0.031 HD
BRANCH  11  14
ATOM     14  C   UNL     1      -4.574   0.139  -1.284  0.00  0.00    -0.024 C 
ATOM     15  H   UNL     1      -4.016  -0.233  -2.169  0.00  0.00    +0.031 HD
ATOM     16  H   UNL     1      -4.661  -0.706  -0.569  0.00  0.00    +0.031 HD
BRANCH  14  17
ATOM     17  C   UNL     1      -5.949   0.566  -1.722  0.00  0.00    -0.047 A 
ATOM     18  C   UNL     1      -7.040   0.452  -0.845  0.00  0.00    -0.055 A 
ATOM     19  C   UNL     1      -8.310   0.882  -1.240  0.00  0.00    -0.020 A 
ATOM     20  C   UNL     1      -8.501   1.439  -2.512  0.00  0.00    +0.117 A 
ATOM     21  C   UNL     1      -7.414   1.567  -3.383  0.00  0.00    -0.020 A 
ATOM     22  C   UNL     1      -6.143   1.139  -2.990  0.00  0.00    -0.055 A 
ATOM     23  H   UNL     1      -6.906   0.033   0.145  0.00  0.00    +0.062 HD
ATOM     24  H   UNL     1      -9.145   0.784  -0.557  0.00  0.00    +0.065 HD
ATOM     25  H   UNL     1      -7.554   2.003  -4.364  0.00  0.00    +0.065 HD
ATOM     26  H   UNL     1      -5.309   1.254  -3.672  0.00  0.00    +0.062 HD
BRANCH  20  27
ATOM     27  O   UNL     1      -9.762   1.871  -2.917  0.00  0.00    -0.507 OA
ATOM     28  H   UNL     1     -10.569   1.792  -2.309  0.00  0.00    +0.292 HD
ENDBRANCH  20  27
ENDBRANCH  14  17
ENDBRANCH  11  14
ENDBRANCH   2  11
BRANCH   2  29
ATOM     29  C   UNL     1      -1.465   0.341  -1.074  0.00  0.00    -0.006 C 
ATOM     30  H   UNL     1      -1.903  -0.610  -1.443  0.00  0.00    +0.033 HD
BRANCH  29  31
ATOM     31  C   UNL     1      -0.080  -0.033  -0.514  0.00  0.00    -0.059 C 
ATOM     32  H   UNL     1       0.535  -0.513  -1.305  0.00  0.00    +0.023 HD
ATOM     33  H   UNL     1       0.462   0.868  -0.167  0.00  0.00    +0.023 HD
ATOM     34  H   UNL     1      -0.161  -0.769   0.309  0.00  0.00    +0.023 HD
ENDBRANCH  29  31
BRANCH  29  35
ATOM     35  C   UNL     1      -1.265   1.259  -2.296  0.00  0.00    -0.059 C 
ATOM     36  H   UNL     1      -2.200   1.353  -2.884  0.00  0.00    +0.023 HD
ATOM     37  H   UNL     1      -0.926   2.268  -1.980  0.00  0.00    +0.023 HD
ATOM     38  H   UNL     1      -0.504   0.833  -2.985  0.00  0.00    +0.023 HD
ENDBRANCH  29  35
ENDBRANCH   2  29
BRANCH   7  39
ATOM     39  O   UNL     1      -0.379   3.559   1.745  0.00  0.00    -0.479 OA
ATOM     40  H   UNL     1      -0.534   4.330   1.108  0.00  0.00    +0.295 HD
ENDBRANCH   7  39
ENDBRANCH   1   6
BRANCH   1  41
ATOM     41  C   UNL     1       1.796   0.881   2.627  0.00  0.00    +0.017 A 
ATOM     42  C   UNL     1       2.331   1.873   1.792  0.00  0.00    -0.043 A 
ATOM     43  C   UNL     1       3.200   1.562   0.744  0.00  0.00    -0.028 A 
ATOM     44  C   UNL     1       3.542   0.221   0.512  0.00  0.00    +0.037 A 
ATOM     45  C   UNL     1       3.082  -0.766   1.395  0.00  0.00    -0.035 A 
ATOM     46  C   UNL     1       2.283  -0.464   2.525  0.00  0.00    -0.026 A 
ATOM     47  H   UNL     1       2.031   2.902   1.934  0.00  0.00    +0.063 HD
ATOM     48  H   UNL     1       3.354  -1.790   1.184  0.00  0.00    +0.064 HD
BRANCH  44  49
ATOM     49  N   UNL     1       4.327  -0.148  -0.637  0.00  0.00    -0.281 N 
ATOM     50  C   UNL     1       5.348  -1.159  -0.598  0.00  0.00    +0.250 C 
ATOM     51  O   UNL     1       5.856  -1.490   0.508  0.00  0.00    -0.270 OA
ATOM     52  H   UNL     1       4.205   0.398  -1.519  0.00  0.00    +0.155 HD
BRANCH  50  53
ATOM     53  C   UNL     1       5.841  -1.792  -1.845  0.00  0.00    +0.055 A 
ATOM     54  C   UNL     1       5.075  -1.776  -3.024  0.00  0.00    -0.047 A 
ATOM     55  C   UNL     1       5.559  -2.387  -4.183  0.00  0.00    -0.043 A 
ATOM     56  C   UNL     1       6.803  -3.016  -4.157  0.00  0.00    +0.028 A 
ATOM     57  N   UNL     1       7.531  -3.036  -3.010  0.00  0.00    -0.263 NA
ATOM     58  C   UNL     1       7.084  -2.450  -1.867  0.00  0.00    +0.040 A 
ATOM     59  H   UNL     1       4.098  -1.313  -3.050  0.00  0.00    +0.063 HD
ATOM     60  H   UNL     1       4.971  -2.377  -5.091  0.00  0.00    +0.063 HD
ATOM     61  H   UNL     1       7.189  -3.494  -5.048  0.00  0.00    +0.083 HD
ATOM     62  H   UNL     1       7.703  -2.490  -0.981  0.00  0.00    +0.084 HD
ENDBRANCH  50  53
ENDBRANCH  44  49
BRANCH  43  63
ATOM     63  C   UNL     1       3.689   2.661  -0.161  0.00  0.00    -0.038 C 
ATOM     64  H   UNL     1       3.117   2.640  -1.112  0.00  0.00    +0.028 HD
ATOM     65  H   UNL     1       4.770   2.530  -0.377  0.00  0.00    +0.028 HD
ATOM     66  H   UNL     1       3.560   3.660   0.308  0.00  0.00    +0.028 HD
ENDBRANCH  43  63
BRANCH  46  67
ATOM     67  C   UNL     1       2.059  -1.615   3.550  0.00  0.00    -0.012 C 
BRANCH  67  68
ATOM     68  C   UNL     1       3.432  -2.224   3.945  0.00  0.00    -0.056 C 
ATOM     69  H   UNL     1       4.104  -1.433   4.344  0.00  0.00    +0.024 HD
ATOM     70  H   UNL     1       3.316  -3.008   4.726  0.00  0.00    +0.024 HD
ATOM     71  H   UNL     1       3.942  -2.717   3.093  0.00  0.00    +0.024 HD
ENDBRANCH  67  68
BRANCH  67  72
ATOM     72  C   UNL     1       1.395  -1.191   4.880  0.00  0.00    -0.056 C 
ATOM     73  H   UNL     1       0.317  -0.983   4.753  0.00  0.00    +0.024 HD
ATOM     74  H   UNL     1       1.440  -2.012   5.628  0.00  0.00    +0.024 HD
ATOM     75  H   UNL     1       1.917  -0.315   5.321  0.00  0.00    +0.024 HD
ENDBRANCH  67  72
BRANCH  67  76
ATOM     76  C   UNL     1       1.197  -2.720   2.902  0.00  0.00    -0.056 C 
ATOM     77  H   UNL     1       0.952  -3.515   3.639  0.00  0.00    +0.024 HD
ATOM     78  H   UNL     1       0.250  -2.298   2.511  0.00  0.00    +0.024 HD
ATOM     79  H   UNL     1       1.725  -3.202   2.053  0.00  0.00    +0.024 HD
ENDBRANCH  67  76
ENDBRANCH  46  67
ENDBRANCH   1  41
TORSDOF 17
