REMARK  Name = 
REMARK  18 active torsions:
REMARK  status: ('A' for Active; 'I' for Inactive)
REMARK    1  A    between atoms: C_1  and  C_2
REMARK    2  A    between atoms: N_4  and  C_5
REMARK    3  A    between atoms: C_5  and  C_6
REMARK    4  A    between atoms: C_5  and  C_10
REMARK    5  A    between atoms: C_6  and  C_7
REMARK    6  A    between atoms: N_12  and  C_13
REMARK    7  A    between atoms: C_13  and  C_14
REMARK    8  A    between atoms: C_13  and  C_22
REMARK    9  A    between atoms: C_14  and  S_15
REMARK   10  A    between atoms: S_15  and  C_16
REMARK   11  A    between atoms: C_22  and  O_23
REMARK   12  A    between atoms: C_22  and  C_24
REMARK   13  A    between atoms: C_24  and  C_25
REMARK   14  A    between atoms: C_30  and  C_31
REMARK   15  A    between atoms: N_33  and  C_34
REMARK   16  A    between atoms: C_34  and  C_35
REMARK   17  A    between atoms: C_34  and  C_36
REMARK   18  A    between atoms: C_34  and  C_37
REMARK                            x       y       z     vdW  Elec       q    Type
REMARK                         _______ _______ _______ _____ _____    ______ ____
ROOT
ATOM      1  C   UNL     1      -1.104   1.477   0.784  0.00  0.00    +0.059 C 
ATOM      2  H   UNL     1      -0.370   1.811   0.024  0.00  0.00    +0.053 HD
ENDROOT
BRANCH   1   5
ATOM      3  C   UNL     1      -1.909   0.021  -1.134  0.00  0.00    +0.234 C 
ATOM      4  O   UNL     1      -1.073   0.488  -1.954  0.00  0.00    -0.274 OA
ATOM      5  N   UNL     1      -2.141   0.685   0.117  0.00  0.00    -0.308 N 
ATOM      6  H   UNL     1      -2.985   0.414   0.671  0.00  0.00    +0.149 HD
BRANCH   3   7
ATOM      7  C   UNL     1      -2.679  -1.221  -1.489  0.00  0.00    +0.108 C 
ATOM      8  H   UNL     1      -2.171  -1.731  -2.339  0.00  0.00    +0.060 HD
BRANCH   7  11
ATOM      9  C   UNL     1      -1.533  -2.810   0.126  0.00  0.00    +0.211 C 
ATOM     10  O   UNL     1      -0.456  -2.736  -0.524  0.00  0.00    -0.276 OA
ATOM     11  N   UNL     1      -2.709  -2.131  -0.338  0.00  0.00    -0.304 N 
ATOM     12  H   UNL     1      -3.597  -2.257   0.200  0.00  0.00    +0.149 HD
BRANCH   9  13
ATOM     13  C   UNL     1      -1.588  -3.650   1.360  0.00  0.00    +0.012 C 
ATOM     14  H   UNL     1      -0.579  -3.722   1.819  0.00  0.00    +0.032 HD
ATOM     15  H   UNL     1      -1.945  -4.667   1.099  0.00  0.00    +0.032 HD
ATOM     16  H   UNL     1      -2.281  -3.197   2.099  0.00  0.00    +0.032 HD
ENDBRANCH   9  13
ENDBRANCH   7  11
BRANCH   7  17
ATOM     17  C   UNL     1      -4.103  -0.842  -1.935  0.00  0.00    +0.051 C 
ATOM     18  H   UNL     1      -4.050  -0.088  -2.751  0.00  0.00    +0.038 HD
ATOM     19  H   UNL     1      -4.660  -0.381  -1.089  0.00  0.00    +0.038 HD
BRANCH  17  20
ATOM     20  C   UNL     1      -4.851  -2.041  -2.441  0.00  0.00    +0.213 C 
ATOM     21  N   UNL     1      -4.603  -2.544  -3.753  0.00  0.00    -0.329 N 
ATOM     22  O   UNL     1      -5.682  -2.623  -1.694  0.00  0.00    -0.276 OA
ATOM     23  H   UNL     1      -5.114  -3.386  -4.100  0.00  0.00    +0.145 HD
ATOM     24  H   UNL     1      -3.908  -2.080  -4.379  0.00  0.00    +0.145 HD
ENDBRANCH  17  20
ENDBRANCH   7  17
ENDBRANCH   3   7
ENDBRANCH   1   5
BRANCH   1  25
ATOM     25  C   UNL     1      -1.756   2.727   1.421  0.00  0.00    +0.019 C 
ATOM     26  H   UNL     1      -2.175   2.479   2.418  0.00  0.00    +0.040 HD
ATOM     27  H   UNL     1      -2.610   3.067   0.795  0.00  0.00    +0.040 HD
BRANCH  25  28
ATOM     28  S   UNL     1      -0.592   4.131   1.612  0.00  0.00    -0.123 S 
BRANCH  28  29
ATOM     29  C   UNL     1      -0.584   4.596  -0.124  0.00  0.00    +0.008 A 
ATOM     30  C   UNL     1       0.463   4.182  -0.958  0.00  0.00    -0.048 A 
ATOM     31  C   UNL     1       0.469   4.545  -2.308  0.00  0.00    -0.061 A 
ATOM     32  C   UNL     1      -0.564   5.333  -2.825  0.00  0.00    -0.062 A 
ATOM     33  C   UNL     1      -1.601   5.763  -1.991  0.00  0.00    -0.061 A 
ATOM     34  C   UNL     1      -1.609   5.399  -0.641  0.00  0.00    -0.048 A 
ATOM     35  H   UNL     1       1.270   3.577  -0.563  0.00  0.00    +0.063 HD
ATOM     36  H   UNL     1       1.274   4.218  -2.953  0.00  0.00    +0.062 HD
ATOM     37  H   UNL     1      -0.558   5.615  -3.870  0.00  0.00    +0.062 HD
ATOM     38  H   UNL     1      -2.397   6.377  -2.391  0.00  0.00    +0.062 HD
ATOM     39  H   UNL     1      -2.415   5.734   0.000  0.00  0.00    +0.063 HD
ENDBRANCH  28  29
ENDBRANCH  25  28
ENDBRANCH   1  25
BRANCH   1  40
ATOM     40  C   UNL     1      -0.356   0.568   1.795  0.00  0.00    +0.078 C 
ATOM     41  H   UNL     1       0.017  -0.315   1.221  0.00  0.00    +0.062 HD
BRANCH  40  42
ATOM     42  C   UNL     1       0.865   1.257   2.428  0.00  0.00    +0.001 C 
ATOM     43  H   UNL     1       0.519   2.007   3.171  0.00  0.00    +0.034 HD
ATOM     44  H   UNL     1       1.431   1.828   1.667  0.00  0.00    +0.034 HD
BRANCH  42  45
ATOM     45  C   UNL     1       1.764   0.244   3.108  0.00  0.00    -0.033 A 
ATOM     46  C   UNL     1       1.617   0.045   4.493  0.00  0.00    -0.058 A 
ATOM     47  C   UNL     1       2.347  -0.944   5.154  0.00  0.00    -0.061 A 
ATOM     48  C   UNL     1       3.224  -1.759   4.440  0.00  0.00    -0.061 A 
ATOM     49  C   UNL     1       3.376  -1.586   3.064  0.00  0.00    -0.049 A 
ATOM     50  C   UNL     1       2.659  -0.588   2.382  0.00  0.00    +0.040 A 
ATOM     51  H   UNL     1       0.922   0.649   5.065  0.00  0.00    +0.062 HD
ATOM     52  H   UNL     1       2.225  -1.085   6.220  0.00  0.00    +0.062 HD
ATOM     53  H   UNL     1       3.786  -2.528   4.954  0.00  0.00    +0.062 HD
ATOM     54  H   UNL     1       4.067  -2.227   2.530  0.00  0.00    +0.063 HD
BRANCH  50  55
ATOM     55  C   UNL     1       2.870  -0.452   0.924  0.00  0.00    +0.245 C 
ATOM     56  O   UNL     1       3.142   0.679   0.439  0.00  0.00    -0.270 OA
ATOM     57  N   UNL     1       2.808  -1.615   0.078  0.00  0.00    -0.307 N 
ATOM     58  H   UNL     1       2.501  -2.507   0.530  0.00  0.00    +0.150 HD
BRANCH  57  59
ATOM     59  C   UNL     1       3.148  -1.636  -1.359  0.00  0.00    +0.026 C 
BRANCH  59  60
ATOM     60  C   UNL     1       4.604  -1.175  -1.569  0.00  0.00    -0.044 C 
ATOM     61  H   UNL     1       5.293  -1.777  -0.939  0.00  0.00    +0.025 HD
ATOM     62  H   UNL     1       4.735  -0.106  -1.307  0.00  0.00    +0.025 HD
ATOM     63  H   UNL     1       4.903  -1.296  -2.633  0.00  0.00    +0.025 HD
ENDBRANCH  59  60
BRANCH  59  64
ATOM     64  C   UNL     1       2.181  -0.734  -2.149  0.00  0.00    -0.044 C 
ATOM     65  H   UNL     1       2.287   0.332  -1.863  0.00  0.00    +0.025 HD
ATOM     66  H   UNL     1       2.379  -0.810  -3.240  0.00  0.00    +0.025 HD
ATOM     67  H   UNL     1       1.132  -1.043  -1.961  0.00  0.00    +0.025 HD
ENDBRANCH  59  64
BRANCH  59  68
ATOM     68  C   UNL     1       3.013  -3.079  -1.886  0.00  0.00    -0.044 C 
ATOM     69  H   UNL     1       3.697  -3.760  -1.334  0.00  0.00    +0.025 HD
ATOM     70  H   UNL     1       3.264  -3.133  -2.968  0.00  0.00    +0.025 HD
ATOM     71  H   UNL     1       1.973  -3.448  -1.751  0.00  0.00    +0.025 HD
ENDBRANCH  59  68
ENDBRANCH  57  59
ENDBRANCH  50  55
ENDBRANCH  42  45
ENDBRANCH  40  42
BRANCH  40  72
ATOM     72  O   UNL     1      -1.225   0.139   2.815  0.00  0.00    -0.390 OA
ATOM     73  H   UNL     1      -1.690  -0.672   2.482  0.00  0.00    +0.210 HD
ENDBRANCH  40  72
ENDBRANCH   1  40
TORSDOF 18
