REMARK  Name = 
REMARK  15 active torsions:
REMARK  status: ('A' for Active; 'I' for Inactive)
REMARK    1  A    between atoms: C_1  and  O_2
REMARK    2  A    between atoms: O_2  and  C_3
REMARK    3  A    between atoms: C_6  and  S_7
REMARK    4  A    between atoms: S_7  and  N_10
REMARK    5  A    between atoms: N_10  and  C_11
REMARK    6  A    between atoms: N_10  and  O_31
REMARK    7  A    between atoms: C_11  and  C_12
REMARK    8  A    between atoms: C_12  and  O_13
REMARK    9  A    between atoms: C_12  and  C_14
REMARK   10  A    between atoms: C_14  and  C_15
REMARK   11  A    between atoms: C_14  and  N_22
REMARK   12  A    between atoms: C_15  and  C_16
REMARK   13  A    between atoms: C_23  and  O_25
REMARK   14  A    between atoms: O_25  and  C_26
REMARK   15  A    between atoms: O_31  and  C_32
REMARK                            x       y       z     vdW  Elec       q    Type
REMARK                         _______ _______ _______ _____ _____    ______ ____
ROOT
ATOM      1  C   UNL     1       1.313   0.307  -1.446  0.00  0.00    +0.075 C 
ATOM      2  H   UNL     1       2.012   0.966  -2.006  0.00  0.00    +0.049 HD
ATOM      3  H   UNL     1       1.471  -0.716  -1.852  0.00  0.00    +0.049 HD
ENDROOT
BRANCH   1   4
ATOM      4  C   UNL     1      -0.145   0.736  -1.740  0.00  0.00    +0.091 C 
ATOM      5  H   UNL     1      -0.264   1.767  -1.351  0.00  0.00    +0.063 HD
BRANCH   4   6
ATOM      6  O   UNL     1      -0.380   0.809  -3.126  0.00  0.00    -0.389 OA
ATOM      7  H   UNL     1      -0.050  -0.030  -3.541  0.00  0.00    +0.210 HD
ENDBRANCH   4   6
BRANCH   4   8
ATOM      8  C   UNL     1      -1.220  -0.134  -1.031  0.00  0.00    +0.057 C 
ATOM      9  H   UNL     1      -0.916  -0.237   0.033  0.00  0.00    +0.053 HD
BRANCH   8  10
ATOM     10  N   UNL     1      -2.514   0.555  -1.101  0.00  0.00    -0.275 N 
ATOM     11  C   UNL     1      -3.403   0.667   0.018  0.00  0.00    +0.401 C 
ATOM     12  O   UNL     1      -3.033   0.301   1.168  0.00  0.00    -0.226 OA
ATOM     13  H   UNL     1      -2.875   0.847  -2.037  0.00  0.00    +0.152 HD
BRANCH  11  14
ATOM     14  O   UNL     1      -4.691   1.172  -0.183  0.00  0.00    -0.445 OA
BRANCH  14  15
ATOM     15  C   UNL     1      -5.654   1.297   0.864  0.00  0.00    +0.130 C 
ATOM     16  C   UNL     1      -6.995   1.622   0.281  0.00  0.00    +0.010 C 
ATOM     17  C   UNL     1      -7.007   3.137   0.271  0.00  0.00    +0.051 C 
ATOM     18  O   UNL     1      -6.101   3.618   1.238  0.00  0.00    -0.376 OA
ATOM     19  C   UNL     1      -5.365   2.518   1.723  0.00  0.00    +0.085 C 
ATOM     20  H   UNL     1      -5.700   0.361   1.465  0.00  0.00    +0.076 HD
ATOM     21  H   UNL     1      -7.800   1.244   0.950  0.00  0.00    +0.032 HD
ATOM     22  H   UNL     1      -7.129   1.199  -0.739  0.00  0.00    +0.032 HD
ATOM     23  H   UNL     1      -8.027   3.519   0.490  0.00  0.00    +0.056 HD
ATOM     24  H   UNL     1      -6.696   3.510  -0.729  0.00  0.00    +0.056 HD
ATOM     25  H   UNL     1      -4.283   2.766   1.726  0.00  0.00    +0.060 HD
ATOM     26  H   UNL     1      -5.676   2.317   2.772  0.00  0.00    +0.060 HD
ENDBRANCH  14  15
ENDBRANCH  11  14
ENDBRANCH   8  10
BRANCH   8  27
ATOM     27  C   UNL     1      -1.358  -1.553  -1.627  0.00  0.00    -0.007 C 
ATOM     28  H   UNL     1      -0.382  -2.080  -1.602  0.00  0.00    +0.033 HD
ATOM     29  H   UNL     1      -1.663  -1.490  -2.694  0.00  0.00    +0.033 HD
BRANCH  27  30
ATOM     30  C   UNL     1      -2.373  -2.371  -0.865  0.00  0.00    -0.046 A 
ATOM     31  C   UNL     1      -2.025  -2.985   0.351  0.00  0.00    -0.059 A 
ATOM     32  C   UNL     1      -2.982  -3.693   1.083  0.00  0.00    -0.062 A 
ATOM     33  C   UNL     1      -4.294  -3.789   0.612  0.00  0.00    -0.062 A 
ATOM     34  C   UNL     1      -4.651  -3.176  -0.592  0.00  0.00    -0.062 A 
ATOM     35  C   UNL     1      -3.696  -2.468  -1.328  0.00  0.00    -0.059 A 
ATOM     36  H   UNL     1      -1.019  -2.909   0.738  0.00  0.00    +0.062 HD
ATOM     37  H   UNL     1      -2.708  -4.162   2.019  0.00  0.00    +0.062 HD
ATOM     38  H   UNL     1      -5.035  -4.334   1.182  0.00  0.00    +0.062 HD
ATOM     39  H   UNL     1      -5.670  -3.244  -0.952  0.00  0.00    +0.062 HD
ATOM     40  H   UNL     1      -3.992  -1.985  -2.251  0.00  0.00    +0.062 HD
ENDBRANCH  27  30
ENDBRANCH   8  27
ENDBRANCH   4   8
ENDBRANCH   1   4
BRANCH   1  41
ATOM     41  N   UNL     1       1.597   0.328   0.002  0.00  0.00    -0.052 NA
BRANCH  41  42
ATOM     42  S   UNL     1       2.224   1.877   0.506  0.00  0.00    +0.083 S 
ATOM     43  O   UNL     1       1.267   2.976   0.139  0.00  0.00    -0.151 OA
ATOM     44  O   UNL     1       2.385   1.881   2.000  0.00  0.00    -0.151 OA
BRANCH  42  48
ATOM     45  C   UNL     1       6.305   2.639  -1.423  0.00  0.00    +0.120 A 
ATOM     46  C   UNL     1       5.154   3.250  -1.937  0.00  0.00    -0.018 A 
ATOM     47  C   UNL     1       3.907   3.024  -1.348  0.00  0.00    -0.032 A 
ATOM     48  C   UNL     1       3.796   2.182  -0.233  0.00  0.00    +0.108 A 
ATOM     49  C   UNL     1       4.943   1.567   0.285  0.00  0.00    -0.032 A 
ATOM     50  C   UNL     1       6.191   1.793  -0.303  0.00  0.00    -0.018 A 
ATOM     51  H   UNL     1       5.228   3.901  -2.798  0.00  0.00    +0.065 HD
ATOM     52  H   UNL     1       3.030   3.500  -1.766  0.00  0.00    +0.064 HD
ATOM     53  H   UNL     1       4.870   0.910   1.142  0.00  0.00    +0.064 HD
ATOM     54  H   UNL     1       7.058   1.304   0.118  0.00  0.00    +0.065 HD
BRANCH  45  55
ATOM     55  O   UNL     1       7.533   2.898  -2.049  0.00  0.00    -0.495 OA
BRANCH  55  56
ATOM     56  C   UNL     1       8.778   2.345  -1.635  0.00  0.00    +0.079 C 
ATOM     57  H   UNL     1       9.009   2.661  -0.595  0.00  0.00    +0.066 HD
ATOM     58  H   UNL     1       9.581   2.716  -2.305  0.00  0.00    +0.066 HD
ATOM     59  H   UNL     1       8.745   1.237  -1.699  0.00  0.00    +0.066 HD
ENDBRANCH  55  56
ENDBRANCH  45  55
ENDBRANCH  42  48
ENDBRANCH  41  42
BRANCH  41  60
ATOM     60  O   UNL     1       2.575  -0.586   0.260  0.00  0.00    -0.273 OA
BRANCH  60  61
ATOM     61  C   UNL     1       1.953  -1.692   0.875  0.00  0.00    +0.082 C 
ATOM     62  C   UNL     1       1.523  -1.397   2.307  0.00  0.00    -0.025 C 
ATOM     63  C   UNL     1       1.538  -2.743   3.017  0.00  0.00    -0.051 C 
ATOM     64  C   UNL     1       2.458  -3.655   2.206  0.00  0.00    -0.051 C 
ATOM     65  C   UNL     1       2.933  -2.844   1.006  0.00  0.00    -0.025 C 
ATOM     66  H   UNL     1       1.083  -2.046   0.280  0.00  0.00    +0.062 HD
ATOM     67  H   UNL     1       2.259  -0.717   2.791  0.00  0.00    +0.029 HD
ATOM     68  H   UNL     1       0.513  -0.932   2.337  0.00  0.00    +0.029 HD
ATOM     69  H   UNL     1       0.509  -3.167   3.040  0.00  0.00    +0.027 HD
ATOM     70  H   UNL     1       1.903  -2.631   4.061  0.00  0.00    +0.027 HD
ATOM     71  H   UNL     1       3.324  -3.990   2.817  0.00  0.00    +0.027 HD
ATOM     72  H   UNL     1       1.894  -4.549   1.860  0.00  0.00    +0.027 HD
ATOM     73  H   UNL     1       2.954  -3.462   0.081  0.00  0.00    +0.029 HD
ATOM     74  H   UNL     1       3.956  -2.453   1.206  0.00  0.00    +0.029 HD
ENDBRANCH  60  61
ENDBRANCH  41  60
ENDBRANCH   1  41
TORSDOF 15
