REMARK  Name = 
REMARK  21 active torsions:
REMARK  status: ('A' for Active; 'I' for Inactive)
REMARK    1  A    between atoms: C_1  and  C_2
REMARK    2  A    between atoms: C_2  and  C_3
REMARK    3  A    between atoms: C_2  and  C_4
REMARK    4  A    between atoms: C_4  and  C_5
REMARK    5  A    between atoms: C_4  and  C_6
REMARK    6  A    between atoms: C_9  and  C_11
REMARK    7  A    between atoms: C_11  and  O_12
REMARK    8  A    between atoms: C_11  and  C_13
REMARK    9  A    between atoms: C_13  and  O_14
REMARK   10  A    between atoms: C_13  and  C_15
REMARK   11  A    between atoms: C_15  and  O_16
REMARK   12  A    between atoms: C_15  and  C_17
REMARK   13  A    between atoms: C_17  and  O_18
REMARK   14  A    between atoms: C_17  and  C_31
REMARK   15  A    between atoms: O_18  and  C_19
REMARK   16  A    between atoms: C_22  and  C_23
REMARK   17  A    between atoms: C_34  and  C_36
REMARK   18  A    between atoms: C_36  and  C_37
REMARK   19  A    between atoms: C_36  and  C_38
REMARK   20  A    between atoms: C_38  and  C_39
REMARK   21  A    between atoms: C_38  and  C_40
REMARK                            x       y       z     vdW  Elec       q    Type
REMARK                         _______ _______ _______ _____ _____    ______ ____
ROOT
ATOM      1  C   UNL     1      -1.582   0.731   0.205  0.00  0.00    +0.204 C 
ATOM      2  H   UNL     1      -2.359   0.476  -0.542  0.00  0.00    +0.086 HD
ENDROOT
BRANCH   1   3
ATOM      3  C   UNL     1      -1.974   2.044   0.830  0.00  0.00    +0.263 C 
ATOM      4  O   UNL     1      -1.475   2.372   1.942  0.00  0.00    -0.271 OA
ATOM      5  N   UNL     1      -2.866   2.934   0.138  0.00  0.00    -0.253 N 
ATOM      6  C   UNL     1      -3.235   4.237   0.619  0.00  0.00    +0.222 C 
ATOM      7  O   UNL     1      -2.773   4.670   1.711  0.00  0.00    -0.275 OA
ATOM      8  H   UNL     1      -3.250   2.628  -0.784  0.00  0.00    +0.158 HD
BRANCH   6   9
ATOM      9  C   UNL     1      -4.131   5.116  -0.225  0.00  0.00    +0.035 C 
ATOM     10  H   UNL     1      -4.851   4.439  -0.737  0.00  0.00    +0.039 HD
BRANCH   9  11
ATOM     11  C   UNL     1      -4.978   6.057   0.652  0.00  0.00    -0.054 C 
ATOM     12  H   UNL     1      -5.699   6.630   0.033  0.00  0.00    +0.024 HD
ATOM     13  H   UNL     1      -4.342   6.768   1.219  0.00  0.00    +0.024 HD
ATOM     14  H   UNL     1      -5.567   5.461   1.382  0.00  0.00    +0.024 HD
ENDBRANCH   9  11
BRANCH   9  15
ATOM     15  C   UNL     1      -3.307   5.846  -1.326  0.00  0.00    -0.036 C 
ATOM     16  H   UNL     1      -2.696   5.077  -1.849  0.00  0.00    +0.030 HD
BRANCH  15  17
ATOM     17  C   UNL     1      -2.331   6.895  -0.767  0.00  0.00    -0.062 C 
ATOM     18  H   UNL     1      -2.876   7.752  -0.318  0.00  0.00    +0.023 HD
ATOM     19  H   UNL     1      -1.690   7.286  -1.586  0.00  0.00    +0.023 HD
ATOM     20  H   UNL     1      -1.664   6.446  -0.003  0.00  0.00    +0.023 HD
ENDBRANCH  15  17
BRANCH  15  21
ATOM     21  C   UNL     1      -4.211   6.479  -2.395  0.00  0.00    -0.062 C 
ATOM     22  H   UNL     1      -3.594   6.845  -3.243  0.00  0.00    +0.023 HD
ATOM     23  H   UNL     1      -4.779   7.339  -1.983  0.00  0.00    +0.023 HD
ATOM     24  H   UNL     1      -4.927   5.728  -2.792  0.00  0.00    +0.023 HD
ENDBRANCH  15  21
ENDBRANCH   9  15
ENDBRANCH   6   9
ENDBRANCH   1   3
BRANCH   1  25
ATOM     25  C   UNL     1      -0.199   0.875  -0.488  0.00  0.00    +0.129 C 
ATOM     26  H   UNL     1       0.541   1.085   0.314  0.00  0.00    +0.066 HD
BRANCH  25  27
ATOM     27  O   UNL     1      -0.189   1.981  -1.361  0.00  0.00    -0.385 OA
ATOM     28  H   UNL     1      -0.970   1.901  -1.968  0.00  0.00    +0.210 HD
ENDBRANCH  25  27
BRANCH  25  29
ATOM     29  C   UNL     1       0.248  -0.419  -1.228  0.00  0.00    +0.119 C 
ATOM     30  H   UNL     1       0.101  -1.278  -0.542  0.00  0.00    +0.065 HD
BRANCH  29  31
ATOM     31  O   UNL     1      -0.566  -0.667  -2.349  0.00  0.00    -0.386 OA
ATOM     32  H   UNL     1      -0.305  -0.035  -3.067  0.00  0.00    +0.210 HD
ENDBRANCH  29  31
BRANCH  29  33
ATOM     33  C   UNL     1       1.756  -0.441  -1.620  0.00  0.00    +0.159 C 
ATOM     34  H   UNL     1       1.923  -1.369  -2.207  0.00  0.00    +0.072 HD
BRANCH  33  38
ATOM     35  C   UNL     1       5.067  -0.268   0.443  0.00  0.00    +0.222 C 
ATOM     36  O   UNL     1       4.701  -0.439   1.638  0.00  0.00    -0.275 OA
ATOM     37  N   UNL     1       4.102  -0.275  -0.622  0.00  0.00    -0.254 N 
ATOM     38  C   UNL     1       2.699  -0.526  -0.433  0.00  0.00    +0.250 C 
ATOM     39  O   UNL     1       2.266  -0.887   0.696  0.00  0.00    -0.272 OA
ATOM     40  H   UNL     1       4.442  -0.102  -1.595  0.00  0.00    +0.158 HD
BRANCH  35  41
ATOM     41  C   UNL     1       6.536  -0.085   0.126  0.00  0.00    +0.035 C 
ATOM     42  H   UNL     1       6.609   0.454  -0.845  0.00  0.00    +0.039 HD
BRANCH  41  43
ATOM     43  C   UNL     1       7.214   0.836   1.153  0.00  0.00    -0.054 C 
ATOM     44  H   UNL     1       8.285   0.978   0.895  0.00  0.00    +0.024 HD
ATOM     45  H   UNL     1       7.144   0.424   2.181  0.00  0.00    +0.024 HD
ATOM     46  H   UNL     1       6.723   1.833   1.145  0.00  0.00    +0.024 HD
ENDBRANCH  41  43
BRANCH  41  47
ATOM     47  C   UNL     1       7.288  -1.439  -0.040  0.00  0.00    -0.036 C 
ATOM     48  H   UNL     1       8.362  -1.210  -0.221  0.00  0.00    +0.030 HD
BRANCH  47  49
ATOM     49  C   UNL     1       7.216  -2.341   1.205  0.00  0.00    -0.062 C 
ATOM     50  H   UNL     1       7.819  -3.259   1.040  0.00  0.00    +0.023 HD
ATOM     51  H   UNL     1       7.635  -1.825   2.093  0.00  0.00    +0.023 HD
ATOM     52  H   UNL     1       6.171  -2.647   1.418  0.00  0.00    +0.023 HD
ENDBRANCH  47  49
BRANCH  47  53
ATOM     53  C   UNL     1       6.789  -2.207  -1.273  0.00  0.00    -0.062 C 
ATOM     54  H   UNL     1       5.735  -2.532  -1.139  0.00  0.00    +0.023 HD
ATOM     55  H   UNL     1       7.417  -3.108  -1.441  0.00  0.00    +0.023 HD
ATOM     56  H   UNL     1       6.856  -1.569  -2.180  0.00  0.00    +0.023 HD
ENDBRANCH  47  53
ENDBRANCH  41  47
ENDBRANCH  35  41
ENDBRANCH  33  38
BRANCH  33  57
ATOM     57  O   UNL     1       2.082   0.643  -2.456  0.00  0.00    -0.380 OA
ATOM     58  H   UNL     1       2.216   1.444  -1.884  0.00  0.00    +0.211 HD
ENDBRANCH  33  57
ENDBRANCH  29  33
ENDBRANCH  25  29
ENDBRANCH   1  25
BRANCH   1  59
ATOM     59  O   UNL     1      -1.524  -0.252   1.246  0.00  0.00    -0.477 OA
BRANCH  59  60
ATOM     60  C   UNL     1      -1.946  -1.593   1.179  0.00  0.00    +0.122 A 
ATOM     61  C   UNL     1      -1.781  -2.381   2.323  0.00  0.00    -0.019 A 
ATOM     62  C   UNL     1      -2.173  -3.721   2.331  0.00  0.00    -0.049 A 
ATOM     63  C   UNL     1      -2.751  -4.304   1.190  0.00  0.00    +0.001 A 
ATOM     64  C   UNL     1      -2.908  -3.516   0.036  0.00  0.00    -0.049 A 
ATOM     65  C   UNL     1      -2.515  -2.174   0.029  0.00  0.00    -0.019 A 
ATOM     66  H   UNL     1      -1.342  -1.950   3.214  0.00  0.00    +0.065 HD
ATOM     67  H   UNL     1      -2.034  -4.300   3.236  0.00  0.00    +0.063 HD
ATOM     68  H   UNL     1      -3.311  -3.938  -0.875  0.00  0.00    +0.063 HD
ATOM     69  H   UNL     1      -2.647  -1.619  -0.885  0.00  0.00    +0.065 HD
BRANCH  63  70
ATOM     70  C   UNL     1      -3.154  -5.734   1.214  0.00  0.00    +0.071 A 
ATOM     71  C   UNL     1      -4.207  -6.220   0.416  0.00  0.00    -0.036 A 
ATOM     72  C   UNL     1      -4.551  -7.572   0.477  0.00  0.00    -0.058 A 
ATOM     73  C   UNL     1      -3.855  -8.429   1.329  0.00  0.00    -0.044 A 
ATOM     74  C   UNL     1      -2.823  -7.917   2.117  0.00  0.00    +0.028 A 
ATOM     75  N   UNL     1      -2.502  -6.598   2.043  0.00  0.00    -0.255 NA
ATOM     76  H   UNL     1      -4.776  -5.564  -0.230  0.00  0.00    +0.064 HD
ATOM     77  H   UNL     1      -5.361  -7.953  -0.131  0.00  0.00    +0.062 HD
ATOM     78  H   UNL     1      -4.116  -9.478   1.384  0.00  0.00    +0.063 HD
ATOM     79  H   UNL     1      -2.278  -8.568   2.787  0.00  0.00    +0.083 HD
ENDBRANCH  63  70
ENDBRANCH  59  60
ENDBRANCH   1  59
TORSDOF 21
