REMARK  Name = 
REMARK  16 active torsions:
REMARK  status: ('A' for Active; 'I' for Inactive)
REMARK    1  A    between atoms: C_1  and  C_2
REMARK    2  A    between atoms: C_3  and  O_4
REMARK    3  A    between atoms: C_8  and  C_9
REMARK    4  A    between atoms: N_11  and  C_12
REMARK    5  A    between atoms: C_12  and  C_13
REMARK    6  A    between atoms: C_12  and  C_35
REMARK    7  A    between atoms: C_13  and  C_14
REMARK    8  A    between atoms: C_14  and  O_15
REMARK    9  A    between atoms: C_14  and  C_16
REMARK   10  A    between atoms: C_16  and  C_17
REMARK   11  A    between atoms: C_16  and  N_24
REMARK   12  A    between atoms: C_17  and  C_18
REMARK   13  A    between atoms: C_25  and  C_27
REMARK   14  A    between atoms: C_31  and  O_32
REMARK   15  A    between atoms: C_33  and  C_34
REMARK   16  A    between atoms: C_35  and  C_36
REMARK                            x       y       z     vdW  Elec       q    Type
REMARK                         _______ _______ _______ _____ _____    ______ ____
ROOT
ATOM      1  C   UNL     1      -0.106   1.694  -1.894  0.00  0.00    +0.076 C 
ATOM      2  H   UNL     1       0.924   1.523  -2.279  0.00  0.00    +0.061 HD
ENDROOT
BRANCH   1   3
ATOM      3  C   UNL     1      -0.001   2.424  -0.533  0.00  0.00    -0.006 C 
ATOM      4  H   UNL     1      -1.021   2.722  -0.203  0.00  0.00    +0.031 HD
ATOM      5  H   UNL     1       0.564   3.368  -0.691  0.00  0.00    +0.031 HD
BRANCH   3   6
ATOM      6  C   UNL     1       0.663   1.609   0.604  0.00  0.00    +0.030 C 
ATOM      7  H   UNL     1      -0.072   0.841   0.929  0.00  0.00    +0.050 HD
BRANCH   6  10
ATOM      8  C   UNL     1       3.063   1.568  -0.331  0.00  0.00    +0.245 C 
ATOM      9  O   UNL     1       3.057   2.809  -0.554  0.00  0.00    -0.270 OA
ATOM     10  N   UNL     1       1.882   0.914   0.164  0.00  0.00    -0.308 N 
ATOM     11  H   UNL     1       1.925  -0.114   0.341  0.00  0.00    +0.149 HD
BRANCH   8  17
ATOM     12  C   UNL     1       4.395  -0.439  -1.176  0.00  0.00    +0.003 A 
ATOM     13  C   UNL     1       5.620  -1.154  -1.171  0.00  0.00    +0.120 A 
ATOM     14  C   UNL     1       6.756  -0.592  -0.582  0.00  0.00    -0.020 A 
ATOM     15  C   UNL     1       6.694   0.659   0.024  0.00  0.00    -0.058 A 
ATOM     16  C   UNL     1       5.488   1.353   0.071  0.00  0.00    -0.049 A 
ATOM     17  C   UNL     1       4.324   0.811  -0.499  0.00  0.00    +0.043 A 
ATOM     18  H   UNL     1       7.694  -1.134  -0.592  0.00  0.00    +0.065 HD
ATOM     19  H   UNL     1       7.580   1.084   0.477  0.00  0.00    +0.062 HD
ATOM     20  H   UNL     1       5.456   2.309   0.580  0.00  0.00    +0.063 HD
BRANCH  12  21
ATOM     21  C   UNL     1       3.208  -1.005  -1.920  0.00  0.00    -0.036 C 
ATOM     22  H   UNL     1       2.750  -1.825  -1.329  0.00  0.00    +0.028 HD
ATOM     23  H   UNL     1       3.523  -1.394  -2.911  0.00  0.00    +0.028 HD
ATOM     24  H   UNL     1       2.443  -0.237  -2.134  0.00  0.00    +0.028 HD
ENDBRANCH  12  21
BRANCH  13  25
ATOM     25  O   UNL     1       5.743  -2.426  -1.737  0.00  0.00    -0.506 OA
ATOM     26  H   UNL     1       4.962  -2.948  -2.111  0.00  0.00    +0.292 HD
ENDBRANCH  13  25
ENDBRANCH   8  17
ENDBRANCH   6  10
BRANCH   6  27
ATOM     27  C   UNL     1       0.943   2.497   1.833  0.00  0.00    -0.009 C 
ATOM     28  H   UNL     1      -0.010   2.956   2.178  0.00  0.00    +0.033 HD
ATOM     29  H   UNL     1       1.618   3.336   1.559  0.00  0.00    +0.033 HD
BRANCH  27  30
ATOM     30  C   UNL     1       1.540   1.698   2.964  0.00  0.00    -0.046 A 
ATOM     31  C   UNL     1       2.931   1.685   3.169  0.00  0.00    -0.059 A 
ATOM     32  C   UNL     1       3.485   0.906   4.188  0.00  0.00    -0.062 A 
ATOM     33  C   UNL     1       2.658   0.133   5.008  0.00  0.00    -0.062 A 
ATOM     34  C   UNL     1       1.275   0.137   4.808  0.00  0.00    -0.062 A 
ATOM     35  C   UNL     1       0.717   0.914   3.788  0.00  0.00    -0.059 A 
ATOM     36  H   UNL     1       3.585   2.274   2.538  0.00  0.00    +0.062 HD
ATOM     37  H   UNL     1       4.557   0.899   4.341  0.00  0.00    +0.062 HD
ATOM     38  H   UNL     1       3.089  -0.470   5.796  0.00  0.00    +0.062 HD
ATOM     39  H   UNL     1       0.635  -0.465   5.441  0.00  0.00    +0.062 HD
ATOM     40  H   UNL     1      -0.355   0.902   3.639  0.00  0.00    +0.062 HD
ENDBRANCH  27  30
ENDBRANCH   6  27
ENDBRANCH   3   6
ENDBRANCH   1   3
BRANCH   1  41
ATOM     41  O   UNL     1      -0.798   2.515  -2.803  0.00  0.00    -0.390 OA
ATOM     42  H   UNL     1      -0.171   3.234  -3.079  0.00  0.00    +0.210 HD
ENDBRANCH   1  41
BRANCH   1  43
ATOM     43  C   UNL     1      -0.815   0.321  -1.796  0.00  0.00    +0.053 C 
ATOM     44  H   UNL     1      -0.209  -0.326  -1.126  0.00  0.00    +0.053 HD
BRANCH  43  45
ATOM     45  N   UNL     1      -2.174   0.482  -1.266  0.00  0.00    -0.306 N 
ATOM     46  C   UNL     1      -2.673  -0.275  -0.152  0.00  0.00    +0.245 C 
ATOM     47  O   UNL     1      -1.924  -1.097   0.443  0.00  0.00    -0.270 OA
ATOM     48  H   UNL     1      -2.819   1.146  -1.752  0.00  0.00    +0.149 HD
BRANCH  46  49
ATOM     49  C   UNL     1      -4.072  -0.107   0.297  0.00  0.00    +0.043 A 
ATOM     50  C   UNL     1      -5.093  -0.106  -0.668  0.00  0.00    -0.049 A 
ATOM     51  C   UNL     1      -6.429  -0.001  -0.289  0.00  0.00    -0.058 A 
ATOM     52  C   UNL     1      -6.768   0.100   1.059  0.00  0.00    -0.020 A 
ATOM     53  C   UNL     1      -5.770   0.113   2.041  0.00  0.00    +0.120 A 
ATOM     54  C   UNL     1      -4.410   0.031   1.669  0.00  0.00    +0.003 A 
ATOM     55  H   UNL     1      -4.856  -0.213  -1.720  0.00  0.00    +0.063 HD
ATOM     56  H   UNL     1      -7.207  -0.010  -1.042  0.00  0.00    +0.062 HD
ATOM     57  H   UNL     1      -7.811   0.170   1.341  0.00  0.00    +0.065 HD
BRANCH  54  58
ATOM     58  C   UNL     1      -3.337   0.084   2.731  0.00  0.00    -0.036 C 
ATOM     59  H   UNL     1      -2.983  -0.943   2.956  0.00  0.00    +0.028 HD
ATOM     60  H   UNL     1      -2.484   0.704   2.385  0.00  0.00    +0.028 HD
ATOM     61  H   UNL     1      -3.706   0.547   3.670  0.00  0.00    +0.028 HD
ENDBRANCH  54  58
BRANCH  53  62
ATOM     62  O   UNL     1      -6.129   0.208   3.386  0.00  0.00    -0.506 OA
ATOM     63  H   UNL     1      -7.099   0.268   3.675  0.00  0.00    +0.292 HD
ENDBRANCH  53  62
ENDBRANCH  46  49
ENDBRANCH  43  45
BRANCH  43  64
ATOM     64  C   UNL     1      -0.865  -0.378  -3.168  0.00  0.00    -0.007 C 
ATOM     65  H   UNL     1       0.159  -0.430  -3.599  0.00  0.00    +0.033 HD
ATOM     66  H   UNL     1      -1.487   0.212  -3.876  0.00  0.00    +0.033 HD
BRANCH  64  67
ATOM     67  C   UNL     1      -1.414  -1.776  -3.041  0.00  0.00    -0.046 A 
ATOM     68  C   UNL     1      -0.582  -2.825  -2.614  0.00  0.00    -0.059 A 
ATOM     69  C   UNL     1      -1.103  -4.111  -2.441  0.00  0.00    -0.062 A 
ATOM     70  C   UNL     1      -2.457  -4.357  -2.685  0.00  0.00    -0.062 A 
ATOM     71  C   UNL     1      -3.292  -3.317  -3.103  0.00  0.00    -0.062 A 
ATOM     72  C   UNL     1      -2.775  -2.031  -3.279  0.00  0.00    -0.059 A 
ATOM     73  H   UNL     1       0.466  -2.644  -2.409  0.00  0.00    +0.062 HD
ATOM     74  H   UNL     1      -0.458  -4.915  -2.112  0.00  0.00    +0.062 HD
ATOM     75  H   UNL     1      -2.859  -5.352  -2.547  0.00  0.00    +0.062 HD
ATOM     76  H   UNL     1      -4.342  -3.507  -3.286  0.00  0.00    +0.062 HD
ATOM     77  H   UNL     1      -3.435  -1.232  -3.594  0.00  0.00    +0.062 HD
ENDBRANCH  64  67
ENDBRANCH  43  64
ENDBRANCH   1  43
TORSDOF 16
