REMARK  Name = 
REMARK  14 active torsions:
REMARK  status: ('A' for Active; 'I' for Inactive)
REMARK    1  A    between atoms: C_1  and  C_2
REMARK    2  A    between atoms: C_2  and  C_3
REMARK    3  A    between atoms: C_2  and  C_4
REMARK    4  A    between atoms: C_4  and  C_5
REMARK    5  A    between atoms: C_5  and  N_6
REMARK    6  A    between atoms: N_6  and  C_7
REMARK    7  A    between atoms: N_6  and  S_33
REMARK    8  A    between atoms: C_7  and  C_8
REMARK    9  A    between atoms: C_8  and  O_9
REMARK   10  A    between atoms: C_8  and  C_10
REMARK   11  A    between atoms: C_24  and  C_25
REMARK   12  A    between atoms: C_25  and  C_26
REMARK   13  A    between atoms: C_25  and  C_27
REMARK   14  A    between atoms: S_33  and  C_36
REMARK                            x       y       z     vdW  Elec       q    Type
REMARK                         _______ _______ _______ _____ _____    ______ ____
ROOT
ATOM      1  C   UNL     1       0.575   0.219  -1.579  0.00  0.00    +0.054 C 
ATOM      2  C   UNL     1       0.883  -0.911  -2.588  0.00  0.00    -0.007 C 
ATOM      3  C   UNL     1       2.348  -1.280  -2.574  0.00  0.00    -0.045 A 
ATOM      4  C   UNL     1       2.761  -2.533  -2.094  0.00  0.00    -0.055 A 
ATOM      5  C   UNL     1       4.121  -2.840  -1.999  0.00  0.00    -0.020 A 
ATOM      6  C   UNL     1       5.088  -1.887  -2.338  0.00  0.00    +0.121 A 
ATOM      7  O   UNL     1       6.440  -2.195  -2.114  0.00  0.00    -0.492 OA
ATOM      8  C   UNL     1       7.420  -1.259  -1.652  0.00  0.00    +0.090 C 
ATOM      9  C   UNL     1       7.421  -1.153  -0.118  0.00  0.00    -0.018 C 
ATOM     10  C   UNL     1       6.042  -0.791   0.448  0.00  0.00    -0.042 C 
ATOM     11  C   UNL     1       6.100  -0.442   1.939  0.00  0.00    +0.024 C 
ATOM     12  C   UNL     1       4.707  -0.363   2.491  0.00  0.00    +0.214 C 
ATOM     13  O   UNL     1       4.332  -1.194   3.362  0.00  0.00    -0.276 OA
ATOM     14  N   UNL     1       3.788   0.610   1.978  0.00  0.00    -0.304 N 
ATOM     15  C   UNL     1       2.344   0.359   1.921  0.00  0.00    +0.102 C 
ATOM     16  C   UNL     1       1.801   0.799   0.580  0.00  0.00    +0.234 C 
ATOM     17  O   UNL     1       2.002   1.978   0.178  0.00  0.00    -0.274 OA
ATOM     18  N   UNL     1       1.075  -0.128  -0.243  0.00  0.00    -0.308 N 
ATOM     19  C   UNL     1       4.678  -0.650  -2.867  0.00  0.00    -0.020 A 
ATOM     20  C   UNL     1       3.317  -0.353  -2.989  0.00  0.00    -0.055 A 
ATOM     21  H   UNL     1       1.112   1.119  -1.954  0.00  0.00    +0.053 HD
ATOM     22  H   UNL     1       0.268  -1.807  -2.367  0.00  0.00    +0.033 HD
ATOM     23  H   UNL     1       0.609  -0.575  -3.612  0.00  0.00    +0.033 HD
ATOM     24  H   UNL     1       2.032  -3.267  -1.772  0.00  0.00    +0.062 HD
ATOM     25  H   UNL     1       4.426  -3.800  -1.604  0.00  0.00    +0.065 HD
ATOM     26  H   UNL     1       7.283  -0.257  -2.106  0.00  0.00    +0.070 HD
ATOM     27  H   UNL     1       8.420  -1.620  -1.972  0.00  0.00    +0.070 HD
ATOM     28  H   UNL     1       7.751  -2.123   0.313  0.00  0.00    +0.030 HD
ATOM     29  H   UNL     1       8.160  -0.376   0.177  0.00  0.00    +0.030 HD
ATOM     30  H   UNL     1       5.623   0.074  -0.112  0.00  0.00    +0.027 HD
ATOM     31  H   UNL     1       5.365  -1.663   0.319  0.00  0.00    +0.027 HD
ATOM     32  H   UNL     1       6.676  -1.219   2.489  0.00  0.00    +0.036 HD
ATOM     33  H   UNL     1       6.609   0.536   2.079  0.00  0.00    +0.036 HD
ATOM     34  H   UNL     1       4.181   1.463   1.518  0.00  0.00    +0.149 HD
ATOM     35  H   UNL     1       2.180  -0.739   1.998  0.00  0.00    +0.060 HD
ATOM     36  H   UNL     1       0.870  -1.082   0.132  0.00  0.00    +0.149 HD
ATOM     37  H   UNL     1       5.398   0.088  -3.189  0.00  0.00    +0.065 HD
ATOM     38  H   UNL     1       3.021   0.611  -3.383  0.00  0.00    +0.062 HD
ENDROOT
BRANCH  15  39
ATOM     39  C   UNL     1       1.619   1.013   3.127  0.00  0.00    -0.020 C 
ATOM     40  H   UNL     1       2.061   0.578   4.051  0.00  0.00    +0.032 HD
BRANCH  39  41
ATOM     41  C   UNL     1       0.123   0.664   3.136  0.00  0.00    -0.061 C 
ATOM     42  H   UNL     1      -0.018  -0.437   3.103  0.00  0.00    +0.023 HD
ATOM     43  H   UNL     1      -0.390   1.118   2.262  0.00  0.00    +0.023 HD
ATOM     44  H   UNL     1      -0.355   1.046   4.064  0.00  0.00    +0.023 HD
ENDBRANCH  39  41
BRANCH  39  45
ATOM     45  C   UNL     1       1.811   2.536   3.208  0.00  0.00    -0.061 C 
ATOM     46  H   UNL     1       2.889   2.799   3.193  0.00  0.00    +0.023 HD
ATOM     47  H   UNL     1       1.385   2.918   4.160  0.00  0.00    +0.023 HD
ATOM     48  H   UNL     1       1.297   3.052   2.371  0.00  0.00    +0.023 HD
ENDBRANCH  39  45
ENDBRANCH  15  39
BRANCH   1  49
ATOM     49  C   UNL     1      -0.932   0.585  -1.530  0.00  0.00    +0.088 C 
ATOM     50  H   UNL     1      -1.304   0.678  -2.577  0.00  0.00    +0.063 HD
BRANCH  49  51
ATOM     51  C   UNL     1      -1.796  -0.464  -0.803  0.00  0.00    +0.048 C 
ATOM     52  H   UNL     1      -1.464  -0.502   0.258  0.00  0.00    +0.047 HD
ATOM     53  H   UNL     1      -1.619  -1.482  -1.210  0.00  0.00    +0.047 HD
BRANCH  51  54
ATOM     54  N   UNL     1      -3.225  -0.090  -0.904  0.00  0.00    -0.174 NA
BRANCH  54  55
ATOM     55  S   UNL     1      -3.998  -0.969  -2.206  0.00  0.00    +0.061 S 
ATOM     56  O   UNL     1      -4.178  -2.406  -1.799  0.00  0.00    -0.153 OA
ATOM     57  O   UNL     1      -3.157  -0.910  -3.450  0.00  0.00    -0.153 OA
BRANCH  55  58
ATOM     58  C   UNL     1      -5.565  -0.245  -2.552  0.00  0.00    +0.105 A 
ATOM     59  C   UNL     1      -5.737   1.141  -2.430  0.00  0.00    -0.035 A 
ATOM     60  C   UNL     1      -6.980   1.721  -2.701  0.00  0.00    -0.060 A 
ATOM     61  C   UNL     1      -8.054   0.920  -3.100  0.00  0.00    -0.062 A 
ATOM     62  C   UNL     1      -7.885  -0.461  -3.230  0.00  0.00    -0.060 A 
ATOM     63  C   UNL     1      -6.643  -1.044  -2.958  0.00  0.00    -0.035 A 
ATOM     64  H   UNL     1      -4.911   1.771  -2.124  0.00  0.00    +0.064 HD
ATOM     65  H   UNL     1      -7.111   2.791  -2.603  0.00  0.00    +0.062 HD
ATOM     66  H   UNL     1      -9.016   1.370  -3.310  0.00  0.00    +0.062 HD
ATOM     67  H   UNL     1      -8.717  -1.081  -3.541  0.00  0.00    +0.062 HD
ATOM     68  H   UNL     1      -6.524  -2.115  -3.065  0.00  0.00    +0.064 HD
ENDBRANCH  55  58
ENDBRANCH  54  55
BRANCH  54  69
ATOM     69  C   UNL     1      -3.949  -0.327   0.360  0.00  0.00    +0.021 C 
ATOM     70  H   UNL     1      -3.610  -1.274   0.833  0.00  0.00    +0.044 HD
ATOM     71  H   UNL     1      -5.041  -0.426   0.173  0.00  0.00    +0.044 HD
BRANCH  69  72
ATOM     72  C   UNL     1      -3.757   0.870   1.305  0.00  0.00    -0.036 C 
ATOM     73  H   UNL     1      -2.680   1.015   1.530  0.00  0.00    +0.028 HD
ATOM     74  H   UNL     1      -4.105   1.780   0.767  0.00  0.00    +0.028 HD
BRANCH  72  75
ATOM     75  C   UNL     1      -4.545   0.730   2.626  0.00  0.00    -0.046 C 
ATOM     76  H   UNL     1      -5.602   0.472   2.394  0.00  0.00    +0.030 HD
BRANCH  75  77
ATOM     77  C   UNL     1      -3.959  -0.369   3.526  0.00  0.00    -0.063 C 
ATOM     78  H   UNL     1      -2.880  -0.189   3.716  0.00  0.00    +0.023 HD
ATOM     79  H   UNL     1      -4.084  -1.367   3.061  0.00  0.00    +0.023 HD
ATOM     80  H   UNL     1      -4.492  -0.391   4.500  0.00  0.00    +0.023 HD
ENDBRANCH  75  77
BRANCH  75  81
ATOM     81  C   UNL     1      -4.547   2.068   3.377  0.00  0.00    -0.063 C 
ATOM     82  H   UNL     1      -5.137   1.983   4.314  0.00  0.00    +0.023 HD
ATOM     83  H   UNL     1      -5.013   2.860   2.752  0.00  0.00    +0.023 HD
ATOM     84  H   UNL     1      -3.510   2.376   3.632  0.00  0.00    +0.023 HD
ENDBRANCH  75  81
ENDBRANCH  72  75
ENDBRANCH  69  72
ENDBRANCH  54  69
ENDBRANCH  51  54
ENDBRANCH  49  51
BRANCH  49  85
ATOM     85  O   UNL     1      -1.092   1.819  -0.877  0.00  0.00    -0.389 OA
ATOM     86  H   UNL     1      -0.831   2.526  -1.523  0.00  0.00    +0.210 HD
ENDBRANCH  49  85
ENDBRANCH   1  49
TORSDOF 14
