REMARK  Name = 
REMARK  15 active torsions:
REMARK  status: ('A' for Active; 'I' for Inactive)
REMARK    1  A    between atoms: C_1  and  O_2
REMARK    2  A    between atoms: O_2  and  C_3
REMARK    3  A    between atoms: C_6  and  S_7
REMARK    4  A    between atoms: S_7  and  N_10
REMARK    5  A    between atoms: N_10  and  C_11
REMARK    6  A    between atoms: N_10  and  O_31
REMARK    7  A    between atoms: C_11  and  C_12
REMARK    8  A    between atoms: C_12  and  O_13
REMARK    9  A    between atoms: C_12  and  C_14
REMARK   10  A    between atoms: C_14  and  C_15
REMARK   11  A    between atoms: C_14  and  N_22
REMARK   12  A    between atoms: C_15  and  C_16
REMARK   13  A    between atoms: C_23  and  O_25
REMARK   14  A    between atoms: O_25  and  C_26
REMARK   15  A    between atoms: O_31  and  C_32
REMARK                            x       y       z     vdW  Elec       q    Type
REMARK                         _______ _______ _______ _____ _____    ______ ____
ROOT
ATOM      1  C   UNL     1       0.774  -1.702  -1.673  0.00  0.00    +0.075 C 
ATOM      2  H   UNL     1       1.424  -1.318  -0.859  0.00  0.00    +0.049 HD
ATOM      3  H   UNL     1       0.723  -2.805  -1.556  0.00  0.00    +0.049 HD
ENDROOT
BRANCH   1   4
ATOM      4  C   UNL     1      -0.661  -1.150  -1.550  0.00  0.00    +0.091 C 
ATOM      5  H   UNL     1      -0.699  -0.160  -2.057  0.00  0.00    +0.063 HD
BRANCH   4   6
ATOM      6  O   UNL     1      -1.551  -2.035  -2.185  0.00  0.00    -0.389 OA
ATOM      7  H   UNL     1      -2.304  -1.494  -2.540  0.00  0.00    +0.210 HD
ENDBRANCH   4   6
BRANCH   4   8
ATOM      8  C   UNL     1      -1.063  -0.927  -0.070  0.00  0.00    +0.057 C 
ATOM      9  H   UNL     1      -0.240  -0.350   0.408  0.00  0.00    +0.053 HD
BRANCH   8  10
ATOM     10  N   UNL     1      -2.302  -0.142  -0.005  0.00  0.00    -0.275 N 
ATOM     11  C   UNL     1      -2.486   0.946   0.910  0.00  0.00    +0.401 C 
ATOM     12  O   UNL     1      -1.547   1.306   1.673  0.00  0.00    -0.226 OA
ATOM     13  H   UNL     1      -3.136  -0.468  -0.542  0.00  0.00    +0.152 HD
BRANCH  11  14
ATOM     14  O   UNL     1      -3.724   1.593   0.961  0.00  0.00    -0.445 OA
BRANCH  14  15
ATOM     15  C   UNL     1      -3.998   2.684   1.842  0.00  0.00    +0.130 C 
ATOM     16  C   UNL     1      -3.403   3.959   1.316  0.00  0.00    +0.010 C 
ATOM     17  C   UNL     1      -4.517   4.538   0.467  0.00  0.00    +0.051 C 
ATOM     18  O   UNL     1      -5.748   3.962   0.844  0.00  0.00    -0.376 OA
ATOM     19  C   UNL     1      -5.482   2.991   1.829  0.00  0.00    +0.085 C 
ATOM     20  H   UNL     1      -3.649   2.451   2.873  0.00  0.00    +0.076 HD
ATOM     21  H   UNL     1      -2.480   3.789   0.722  0.00  0.00    +0.032 HD
ATOM     22  H   UNL     1      -3.176   4.645   2.163  0.00  0.00    +0.032 HD
ATOM     23  H   UNL     1      -4.330   4.309  -0.605  0.00  0.00    +0.056 HD
ATOM     24  H   UNL     1      -4.565   5.641   0.589  0.00  0.00    +0.056 HD
ATOM     25  H   UNL     1      -5.792   3.393   2.819  0.00  0.00    +0.060 HD
ATOM     26  H   UNL     1      -6.078   2.075   1.625  0.00  0.00    +0.060 HD
ENDBRANCH  14  15
ENDBRANCH  11  14
ENDBRANCH   8  10
BRANCH   8  27
ATOM     27  C   UNL     1      -1.238  -2.252   0.702  0.00  0.00    -0.007 C 
ATOM     28  H   UNL     1      -2.084  -2.833   0.273  0.00  0.00    +0.033 HD
ATOM     29  H   UNL     1      -0.327  -2.879   0.597  0.00  0.00    +0.033 HD
BRANCH  27  30
ATOM     30  C   UNL     1      -1.476  -1.998   2.168  0.00  0.00    -0.046 A 
ATOM     31  C   UNL     1      -2.783  -1.976   2.685  0.00  0.00    -0.059 A 
ATOM     32  C   UNL     1      -3.002  -1.680   4.034  0.00  0.00    -0.062 A 
ATOM     33  C   UNL     1      -1.920  -1.399   4.874  0.00  0.00    -0.062 A 
ATOM     34  C   UNL     1      -0.618  -1.412   4.366  0.00  0.00    -0.062 A 
ATOM     35  C   UNL     1      -0.395  -1.707   3.017  0.00  0.00    -0.059 A 
ATOM     36  H   UNL     1      -3.631  -2.176   2.042  0.00  0.00    +0.062 HD
ATOM     37  H   UNL     1      -4.010  -1.662   4.427  0.00  0.00    +0.062 HD
ATOM     38  H   UNL     1      -2.092  -1.168   5.917  0.00  0.00    +0.062 HD
ATOM     39  H   UNL     1       0.218  -1.188   5.016  0.00  0.00    +0.062 HD
ATOM     40  H   UNL     1       0.617  -1.699   2.632  0.00  0.00    +0.062 HD
ENDBRANCH  27  30
ENDBRANCH   8  27
ENDBRANCH   4   8
ENDBRANCH   1   4
BRANCH   1  41
ATOM     41  N   UNL     1       1.353  -1.370  -2.989  0.00  0.00    -0.052 NA
BRANCH  41  42
ATOM     42  S   UNL     1       1.916   0.284  -3.185  0.00  0.00    +0.083 S 
ATOM     43  O   UNL     1       3.328   0.308  -3.697  0.00  0.00    -0.151 OA
ATOM     44  O   UNL     1       1.047   0.951  -4.215  0.00  0.00    -0.151 OA
BRANCH  42  48
ATOM     45  C   UNL     1       1.685   2.667   0.726  0.00  0.00    +0.120 A 
ATOM     46  C   UNL     1       0.683   2.808  -0.253  0.00  0.00    -0.018 A 
ATOM     47  C   UNL     1       0.763   2.092  -1.450  0.00  0.00    -0.032 A 
ATOM     48  C   UNL     1       1.838   1.222  -1.687  0.00  0.00    +0.108 A 
ATOM     49  C   UNL     1       2.847   1.101  -0.723  0.00  0.00    -0.032 A 
ATOM     50  C   UNL     1       2.765   1.813   0.477  0.00  0.00    -0.018 A 
ATOM     51  H   UNL     1      -0.161   3.464  -0.098  0.00  0.00    +0.065 HD
ATOM     52  H   UNL     1      -0.022   2.210  -2.186  0.00  0.00    +0.064 HD
ATOM     53  H   UNL     1       3.695   0.453  -0.893  0.00  0.00    +0.064 HD
ATOM     54  H   UNL     1       3.546   1.701   1.219  0.00  0.00    +0.065 HD
BRANCH  45  55
ATOM     55  O   UNL     1       1.644   3.355   1.948  0.00  0.00    -0.495 OA
BRANCH  55  56
ATOM     56  C   UNL     1       0.605   4.250   2.333  0.00  0.00    +0.079 C 
ATOM     57  H   UNL     1      -0.366   3.712   2.377  0.00  0.00    +0.066 HD
ATOM     58  H   UNL     1       0.541   5.094   1.615  0.00  0.00    +0.066 HD
ATOM     59  H   UNL     1       0.830   4.656   3.340  0.00  0.00    +0.066 HD
ENDBRANCH  55  56
ENDBRANCH  45  55
ENDBRANCH  42  48
ENDBRANCH  41  42
BRANCH  41  60
ATOM     60  O   UNL     1       2.244  -2.303  -3.474  0.00  0.00    -0.273 OA
BRANCH  60  61
ATOM     61  C   UNL     1       3.360  -2.479  -2.607  0.00  0.00    +0.082 C 
ATOM     62  C   UNL     1       4.638  -2.596  -3.427  0.00  0.00    -0.025 C 
ATOM     63  C   UNL     1       5.558  -3.483  -2.612  0.00  0.00    -0.051 C 
ATOM     64  C   UNL     1       4.645  -4.444  -1.866  0.00  0.00    -0.051 C 
ATOM     65  C   UNL     1       3.259  -3.802  -1.843  0.00  0.00    -0.025 C 
ATOM     66  H   UNL     1       3.499  -1.650  -1.879  0.00  0.00    +0.062 HD
ATOM     67  H   UNL     1       4.425  -3.088  -4.403  0.00  0.00    +0.029 HD
ATOM     68  H   UNL     1       5.104  -1.605  -3.612  0.00  0.00    +0.029 HD
ATOM     69  H   UNL     1       6.122  -2.861  -1.882  0.00  0.00    +0.027 HD
ATOM     70  H   UNL     1       6.277  -4.026  -3.262  0.00  0.00    +0.027 HD
ATOM     71  H   UNL     1       4.602  -5.416  -2.405  0.00  0.00    +0.027 HD
ATOM     72  H   UNL     1       5.021  -4.621  -0.835  0.00  0.00    +0.027 HD
ATOM     73  H   UNL     1       2.525  -4.482  -2.330  0.00  0.00    +0.029 HD
ATOM     74  H   UNL     1       2.935  -3.621  -0.795  0.00  0.00    +0.029 HD
ENDBRANCH  60  61
ENDBRANCH  41  60
ENDBRANCH   1  41
TORSDOF 15
