REMARK  Name = 
REMARK  11 active torsions:
REMARK  status: ('A' for Active; 'I' for Inactive)
REMARK    1  A    between atoms: O_1  and  C_2
REMARK    2  A    between atoms: C_3  and  O_4
REMARK    3  A    between atoms: C_5  and  C_6
REMARK    4  A    between atoms: C_6  and  C_7
REMARK    5  A    between atoms: N_13  and  C_14
REMARK    6  A    between atoms: C_14  and  C_15
REMARK    7  A    between atoms: N_22  and  C_23
REMARK    8  A    between atoms: N_25  and  C_26
REMARK    9  A    between atoms: C_26  and  C_27
REMARK   10  A    between atoms: C_33  and  C_34
REMARK   11  A    between atoms: C_34  and  C_35
REMARK                            x       y       z     vdW  Elec       q    Type
REMARK                         _______ _______ _______ _____ _____    ______ ____
ROOT
ATOM      1  C   UNL     1      -0.002   1.479   1.556  0.00  0.00    +0.102 C 
ATOM      2  C   UNL     1      -1.417   0.853   1.707  0.00  0.00    +0.102 C 
ATOM      3  C   UNL     1      -1.483  -0.634   1.284  0.00  0.00    +0.058 C 
ATOM      4  N   UNL     1      -1.366  -0.769  -0.187  0.00  0.00    -0.296 N 
ATOM      5  C   UNL     1      -0.020  -0.914  -0.697  0.00  0.00    +0.197 C 
ATOM      6  N   UNL     1       0.318  -1.933  -1.437  0.00  0.00    -0.142 NA
ATOM      7  N   UNL     1       1.006   0.003  -0.234  0.00  0.00    -0.296 N 
ATOM      8  C   UNL     1       0.574   1.390   0.119  0.00  0.00    +0.058 C 
ATOM      9  H   UNL     1      -0.117   2.560   1.808  0.00  0.00    +0.064 HD
ATOM     10  H   UNL     1      -1.677   0.917   2.788  0.00  0.00    +0.064 HD
ATOM     11  H   UNL     1      -0.620  -1.157   1.748  0.00  0.00    +0.053 HD
ATOM     12  H   UNL     1      -0.256   1.676  -0.550  0.00  0.00    +0.053 HD
ENDROOT
BRANCH   4  13
ATOM     13  C   UNL     1      -2.577  -0.859  -1.043  0.00  0.00    +0.018 C 
ATOM     14  H   UNL     1      -2.936  -1.909  -1.029  0.00  0.00    +0.047 HD
ATOM     15  H   UNL     1      -3.387  -0.241  -0.604  0.00  0.00    +0.047 HD
BRANCH  13  16
ATOM     16  C   UNL     1      -2.401  -0.404  -2.521  0.00  0.00    -0.025 C 
ATOM     17  C   UNL     1      -1.917   1.064  -2.627  0.00  0.00    -0.049 C 
ATOM     18  C   UNL     1      -2.400   1.747  -3.911  0.00  0.00    -0.053 C 
ATOM     19  C   UNL     1      -3.938   1.802  -3.978  0.00  0.00    -0.053 C 
ATOM     20  C   UNL     1      -4.621   0.592  -3.311  0.00  0.00    -0.053 C 
ATOM     21  C   UNL     1      -3.716  -0.645  -3.314  0.00  0.00    -0.049 C 
ATOM     22  H   UNL     1      -1.635  -1.039  -3.008  0.00  0.00    +0.032 HD
ATOM     23  H   UNL     1      -0.809   1.069  -2.635  0.00  0.00    +0.027 HD
ATOM     24  H   UNL     1      -2.276   1.661  -1.761  0.00  0.00    +0.027 HD
ATOM     25  H   UNL     1      -2.008   1.187  -4.789  0.00  0.00    +0.027 HD
ATOM     26  H   UNL     1      -1.989   2.779  -3.961  0.00  0.00    +0.027 HD
ATOM     27  H   UNL     1      -4.243   1.858  -5.045  0.00  0.00    +0.027 HD
ATOM     28  H   UNL     1      -4.294   2.731  -3.482  0.00  0.00    +0.027 HD
ATOM     29  H   UNL     1      -5.568   0.360  -3.845  0.00  0.00    +0.027 HD
ATOM     30  H   UNL     1      -4.885   0.846  -2.261  0.00  0.00    +0.027 HD
ATOM     31  H   UNL     1      -3.468  -0.897  -4.370  0.00  0.00    +0.027 HD
ATOM     32  H   UNL     1      -4.277  -1.515  -2.909  0.00  0.00    +0.027 HD
ENDBRANCH  13  16
ENDBRANCH   4  13
BRANCH   3  33
ATOM     33  C   UNL     1      -2.741  -1.350   1.843  0.00  0.00    -0.006 C 
ATOM     34  H   UNL     1      -3.658  -0.770   1.602  0.00  0.00    +0.033 HD
ATOM     35  H   UNL     1      -2.845  -2.344   1.355  0.00  0.00    +0.033 HD
BRANCH  33  36
ATOM     36  C   UNL     1      -2.652  -1.573   3.333  0.00  0.00    -0.046 A 
ATOM     37  C   UNL     1      -1.819  -2.581   3.847  0.00  0.00    -0.059 A 
ATOM     38  C   UNL     1      -1.715  -2.775   5.228  0.00  0.00    -0.062 A 
ATOM     39  C   UNL     1      -2.440  -1.964   6.105  0.00  0.00    -0.062 A 
ATOM     40  C   UNL     1      -3.270  -0.958   5.603  0.00  0.00    -0.062 A 
ATOM     41  C   UNL     1      -3.377  -0.761   4.222  0.00  0.00    -0.059 A 
ATOM     42  H   UNL     1      -1.248  -3.214   3.178  0.00  0.00    +0.062 HD
ATOM     43  H   UNL     1      -1.071  -3.552   5.618  0.00  0.00    +0.062 HD
ATOM     44  H   UNL     1      -2.358  -2.114   7.174  0.00  0.00    +0.062 HD
ATOM     45  H   UNL     1      -3.830  -0.329   6.283  0.00  0.00    +0.062 HD
ATOM     46  H   UNL     1      -4.018   0.028   3.848  0.00  0.00    +0.062 HD
ENDBRANCH  33  36
ENDBRANCH   3  33
BRANCH   7  47
ATOM     47  C   UNL     1       2.435  -0.394  -0.328  0.00  0.00    +0.018 C 
ATOM     48  H   UNL     1       2.695  -0.477  -1.405  0.00  0.00    +0.047 HD
ATOM     49  H   UNL     1       3.088   0.381   0.095  0.00  0.00    +0.047 HD
BRANCH  47  50
ATOM     50  C   UNL     1       2.799  -1.735   0.381  0.00  0.00    -0.025 C 
ATOM     51  C   UNL     1       4.243  -2.168   0.036  0.00  0.00    -0.049 C 
ATOM     52  C   UNL     1       5.303  -1.310   0.745  0.00  0.00    -0.053 C 
ATOM     53  C   UNL     1       5.085  -1.298   2.262  0.00  0.00    -0.053 C 
ATOM     54  C   UNL     1       3.666  -0.840   2.617  0.00  0.00    -0.053 C 
ATOM     55  C   UNL     1       2.616  -1.711   1.912  0.00  0.00    -0.049 C 
ATOM     56  H   UNL     1       2.146  -2.542  -0.002  0.00  0.00    +0.032 HD
ATOM     57  H   UNL     1       4.406  -2.121  -1.063  0.00  0.00    +0.027 HD
ATOM     58  H   UNL     1       4.386  -3.229   0.338  0.00  0.00    +0.027 HD
ATOM     59  H   UNL     1       5.285  -0.271   0.352  0.00  0.00    +0.027 HD
ATOM     60  H   UNL     1       6.310  -1.727   0.528  0.00  0.00    +0.027 HD
ATOM     61  H   UNL     1       5.821  -0.612   2.733  0.00  0.00    +0.027 HD
ATOM     62  H   UNL     1       5.259  -2.318   2.670  0.00  0.00    +0.027 HD
ATOM     63  H   UNL     1       3.535   0.228   2.344  0.00  0.00    +0.027 HD
ATOM     64  H   UNL     1       3.524  -0.921   3.716  0.00  0.00    +0.027 HD
ATOM     65  H   UNL     1       2.706  -2.751   2.298  0.00  0.00    +0.027 HD
ATOM     66  H   UNL     1       1.599  -1.378   2.175  0.00  0.00    +0.027 HD
ENDBRANCH  47  50
ENDBRANCH   7  47
BRANCH   8  67
ATOM     67  C   UNL     1       1.643   2.499  -0.113  0.00  0.00    -0.006 C 
ATOM     68  H   UNL     1       1.197   3.483   0.151  0.00  0.00    +0.033 HD
ATOM     69  H   UNL     1       2.502   2.386   0.582  0.00  0.00    +0.033 HD
BRANCH  67  70
ATOM     70  C   UNL     1       2.089   2.602  -1.553  0.00  0.00    -0.046 A 
ATOM     71  C   UNL     1       3.418   2.322  -1.918  0.00  0.00    -0.059 A 
ATOM     72  C   UNL     1       3.818   2.416  -3.255  0.00  0.00    -0.062 A 
ATOM     73  C   UNL     1       2.902   2.808  -4.235  0.00  0.00    -0.062 A 
ATOM     74  C   UNL     1       1.589   3.123  -3.877  0.00  0.00    -0.062 A 
ATOM     75  C   UNL     1       1.187   3.032  -2.542  0.00  0.00    -0.059 A 
ATOM     76  H   UNL     1       4.148   2.034  -1.173  0.00  0.00    +0.062 HD
ATOM     77  H   UNL     1       4.839   2.188  -3.531  0.00  0.00    +0.062 HD
ATOM     78  H   UNL     1       3.213   2.881  -5.269  0.00  0.00    +0.062 HD
ATOM     79  H   UNL     1       0.883   3.442  -4.633  0.00  0.00    +0.062 HD
ATOM     80  H   UNL     1       0.172   3.303  -2.278  0.00  0.00    +0.062 HD
ENDBRANCH  67  70
ENDBRANCH   8  67
BRANCH   6  81
ATOM     81  C   UNL     1      -0.518  -3.013  -1.765  0.00  0.00    +0.208 C 
ATOM     82  N   UNL     1      -1.203  -3.905  -2.036  0.00  0.00    -0.169 NA
ENDBRANCH   6  81
BRANCH   2  83
ATOM     83  O   UNL     1      -2.359   1.597   0.975  0.00  0.00    -0.387 OA
ATOM     84  H   UNL     1      -2.521   2.438   1.478  0.00  0.00    +0.210 HD
ENDBRANCH   2  83
BRANCH   1  85
ATOM     85  O   UNL     1       0.896   0.912   2.471  0.00  0.00    -0.387 OA
ATOM     86  H   UNL     1       0.647   1.246   3.372  0.00  0.00    +0.210 HD
ENDBRANCH   1  85
TORSDOF 11
