REMARK  Name = 
REMARK  10 active torsions:
REMARK  status: ('A' for Active; 'I' for Inactive)
REMARK    1  A    between atoms: C_1  and  C_2
REMARK    2  A    between atoms: C_2  and  C_3
REMARK    3  A    between atoms: C_3  and  C_4
REMARK    4  A    between atoms: C_3  and  C_25
REMARK    5  A    between atoms: C_8  and  N_9
REMARK    6  A    between atoms: C_10  and  C_12
REMARK    7  A    between atoms: C_12  and  C_13
REMARK    8  A    between atoms: C_13  and  N_14
REMARK    9  A    between atoms: N_14  and  C_15
REMARK   10  A    between atoms: C_26  and  O_27
REMARK                            x       y       z     vdW  Elec       q    Type
REMARK                         _______ _______ _______ _____ _____    ______ ____
ROOT
ATOM      1  C   UNL     1       2.150   1.930  -0.396  0.00  0.00    -0.038 A 
ATOM      2  C   UNL     1       1.770   3.265  -0.173  0.00  0.00    -0.058 A 
ATOM      3  C   UNL     1       0.554   3.561   0.447  0.00  0.00    -0.060 A 
ATOM      4  C   UNL     1      -0.301   2.530   0.842  0.00  0.00    -0.040 A 
ATOM      5  C   UNL     1       0.045   1.193   0.608  0.00  0.00    +0.034 A 
ATOM      6  C   UNL     1       1.282   0.898   0.007  0.00  0.00    -0.037 A 
ATOM      7  H   UNL     1       2.417   4.080  -0.471  0.00  0.00    +0.062 HD
ATOM      8  H   UNL     1       0.274   4.591   0.622  0.00  0.00    +0.062 HD
ATOM      9  H   UNL     1      -1.241   2.774   1.321  0.00  0.00    +0.064 HD
ATOM     10  H   UNL     1       1.579  -0.132  -0.123  0.00  0.00    +0.064 HD
ENDROOT
BRANCH   5  11
ATOM     11  N   UNL     1      -0.844   0.150   1.041  0.00  0.00    -0.285 N 
ATOM     12  C   UNL     1      -1.080  -1.061   0.304  0.00  0.00    +0.218 C 
ATOM     13  O   UNL     1      -0.546  -1.239  -0.825  0.00  0.00    -0.275 OA
ATOM     14  H   UNL     1      -1.424   0.332   1.890  0.00  0.00    +0.155 HD
BRANCH  12  15
ATOM     15  C   UNL     1      -1.964  -2.134   0.879  0.00  0.00    +0.037 C 
ATOM     16  H   UNL     1      -2.467  -1.776   1.801  0.00  0.00    +0.037 HD
ATOM     17  H   UNL     1      -1.319  -2.990   1.172  0.00  0.00    +0.037 HD
BRANCH  15  18
ATOM     18  C   UNL     1      -3.016  -2.635  -0.127  0.00  0.00    +0.005 C 
ATOM     19  H   UNL     1      -3.553  -3.509   0.304  0.00  0.00    +0.043 HD
ATOM     20  H   UNL     1      -2.502  -3.011  -1.038  0.00  0.00    +0.043 HD
BRANCH  18  21
ATOM     21  N   UNL     1      -3.978  -1.595  -0.526  0.00  0.00    -0.306 NA
ATOM     22  H   UNL     1      -3.480  -0.744  -0.878  0.00  0.00    +0.123 HD
BRANCH  21  23
ATOM     23  C   UNL     1      -4.953  -1.267   0.531  0.00  0.00    +0.052 C 
ATOM     24  C   UNL     1      -4.686   0.086   1.156  0.00  0.00    -0.062 C 
ATOM     25  C   UNL     1      -5.680   0.942   0.938  0.00  0.00    -0.056 C 
ATOM     26  C   UNL     1      -6.699   0.266   0.165  0.00  0.00    -0.020 A 
ATOM     27  C   UNL     1      -7.924   0.748  -0.294  0.00  0.00    -0.054 A 
ATOM     28  C   UNL     1      -8.750  -0.126  -1.022  0.00  0.00    -0.061 A 
ATOM     29  C   UNL     1      -8.338  -1.451  -1.272  0.00  0.00    -0.061 A 
ATOM     30  C   UNL     1      -7.099  -1.910  -0.795  0.00  0.00    -0.056 A 
ATOM     31  C   UNL     1      -6.293  -1.024  -0.078  0.00  0.00    -0.020 A 
ATOM     32  H   UNL     1      -5.034  -2.052   1.315  0.00  0.00    +0.055 HD
ATOM     33  H   UNL     1      -3.803   0.337   1.726  0.00  0.00    +0.059 HD
ATOM     34  H   UNL     1      -5.715   1.964   1.291  0.00  0.00    +0.062 HD
ATOM     35  H   UNL     1      -8.233   1.766  -0.094  0.00  0.00    +0.062 HD
ATOM     36  H   UNL     1      -9.706   0.220  -1.392  0.00  0.00    +0.062 HD
ATOM     37  H   UNL     1      -8.981  -2.118  -1.832  0.00  0.00    +0.062 HD
ATOM     38  H   UNL     1      -6.776  -2.926  -0.981  0.00  0.00    +0.062 HD
ENDBRANCH  21  23
ENDBRANCH  18  21
ENDBRANCH  15  18
ENDBRANCH  12  15
ENDBRANCH   5  11
BRANCH   1  39
ATOM     39  C   UNL     1       3.484   1.620  -1.052  0.00  0.00    +0.019 C 
ATOM     40  H   UNL     1       3.998   2.581  -1.283  0.00  0.00    +0.040 HD
BRANCH  39  41
ATOM     41  C   UNL     1       4.401   0.875  -0.074  0.00  0.00    +0.087 A 
ATOM     42  C   UNL     1       5.152   1.625   0.859  0.00  0.00    +0.292 A 
ATOM     43  O   UNL     1       5.935   1.023   1.748  0.00  0.00    -0.425 OA
ATOM     44  C   UNL     1       6.053  -0.294   1.833  0.00  0.00    +0.143 A 
ATOM     45  C   UNL     1       6.902  -0.851   2.796  0.00  0.00    -0.019 A 
ATOM     46  C   UNL     1       7.029  -2.239   2.902  0.00  0.00    -0.058 A 
ATOM     47  C   UNL     1       6.308  -3.075   2.047  0.00  0.00    -0.061 A 
ATOM     48  C   UNL     1       5.457  -2.529   1.081  0.00  0.00    -0.047 A 
ATOM     49  C   UNL     1       5.324  -1.132   0.964  0.00  0.00    +0.064 A 
ATOM     50  C   UNL     1       4.481  -0.537   0.009  0.00  0.00    +0.200 A 
ATOM     51  O   UNL     1       3.805  -1.271  -0.761  0.00  0.00    -0.287 OA
ATOM     52  H   UNL     1       7.463  -0.209   3.463  0.00  0.00    +0.065 HD
ATOM     53  H   UNL     1       7.687  -2.666   3.648  0.00  0.00    +0.062 HD
ATOM     54  H   UNL     1       6.408  -4.150   2.133  0.00  0.00    +0.062 HD
ATOM     55  H   UNL     1       4.908  -3.199   0.430  0.00  0.00    +0.063 HD
BRANCH  42  56
ATOM     56  O   UNL     1       5.080   3.016   0.867  0.00  0.00    -0.480 OA
ATOM     57  H   UNL     1       5.613   3.559   1.535  0.00  0.00    +0.295 HD
ENDBRANCH  42  56
ENDBRANCH  39  41
BRANCH  39  58
ATOM     58  C   UNL     1       3.303   0.939  -2.431  0.00  0.00    -0.045 C 
ATOM     59  H   UNL     1       2.596   0.085  -2.367  0.00  0.00    +0.027 HD
ATOM     60  H   UNL     1       4.285   0.556  -2.786  0.00  0.00    +0.027 HD
BRANCH  58  61
ATOM     61  C   UNL     1       2.762   1.908  -3.484  0.00  0.00    -0.064 C 
ATOM     62  H   UNL     1       2.655   1.379  -4.455  0.00  0.00    +0.023 HD
ATOM     63  H   UNL     1       1.766   2.294  -3.182  0.00  0.00    +0.023 HD
ATOM     64  H   UNL     1       3.460   2.761  -3.623  0.00  0.00    +0.023 HD
ENDBRANCH  58  61
ENDBRANCH  39  58
ENDBRANCH   1  39
TORSDOF 10
