REMARK  Name = 
REMARK  17 active torsions:
REMARK  status: ('A' for Active; 'I' for Inactive)
REMARK    1  A    between atoms: C_1  and  C_2
REMARK    2  A    between atoms: C_2  and  C_3
REMARK    3  A    between atoms: C_2  and  C_4
REMARK    4  A    between atoms: C_4  and  C_5
REMARK    5  A    between atoms: C_5  and  C_6
REMARK    6  A    between atoms: C_6  and  C_7
REMARK    7  A    between atoms: C_10  and  O_11
REMARK    8  A    between atoms: C_17  and  S_18
REMARK    9  A    between atoms: S_18  and  C_19
REMARK   10  A    between atoms: C_21  and  C_22
REMARK   11  A    between atoms: C_23  and  N_24
REMARK   12  A    between atoms: C_25  and  C_27
REMARK   13  A    between atoms: C_34  and  C_35
REMARK   14  A    between atoms: C_35  and  C_36
REMARK   15  A    between atoms: C_35  and  C_37
REMARK   16  A    between atoms: C_35  and  C_38
REMARK   17  A    between atoms: C_39  and  O_40
REMARK                            x       y       z     vdW  Elec       q    Type
REMARK                         _______ _______ _______ _____ _____    ______ ____
ROOT
ATOM      1  S   UNL     1      -0.490  -0.841  -3.478  0.00  0.00    -0.079 S 
ENDROOT
BRANCH   1   6
ATOM      2  C   UNL     1       2.562   0.570  -0.177  0.00  0.00    +0.123 C 
ATOM      3  C   UNL     1       2.660  -0.920  -0.631  0.00  0.00    +0.051 C 
ATOM      4  C   UNL     1       1.533  -1.329  -1.530  0.00  0.00    +0.180 C 
ATOM      5  O   UNL     1       1.285  -2.554  -1.674  0.00  0.00    -0.291 OA
ATOM      6  C   UNL     1       0.814  -0.329  -2.336  0.00  0.00    +0.135 C 
ATOM      7  C   UNL     1       1.171   0.958  -2.240  0.00  0.00    +0.297 C 
ATOM      8  O   UNL     1       2.081   1.383  -1.261  0.00  0.00    -0.456 OA
ATOM      9  H   UNL     1       3.591  -1.093  -1.208  0.00  0.00    +0.038 HD
ATOM     10  H   UNL     1       2.712  -1.606   0.237  0.00  0.00    +0.038 HD
BRANCH   2  11
ATOM     11  C   UNL     1       3.990   1.086   0.188  0.00  0.00    -0.008 C 
ATOM     12  H   UNL     1       3.910   1.993   0.828  0.00  0.00    +0.031 HD
ATOM     13  H   UNL     1       4.527   0.311   0.780  0.00  0.00    +0.031 HD
BRANCH  11  14
ATOM     14  C   UNL     1       4.855   1.465  -1.030  0.00  0.00    -0.024 C 
ATOM     15  H   UNL     1       4.401   2.330  -1.560  0.00  0.00    +0.031 HD
ATOM     16  H   UNL     1       4.904   0.629  -1.759  0.00  0.00    +0.031 HD
BRANCH  14  17
ATOM     17  C   UNL     1       6.249   1.827  -0.593  0.00  0.00    -0.047 A 
ATOM     18  C   UNL     1       7.238   0.835  -0.487  0.00  0.00    -0.055 A 
ATOM     19  C   UNL     1       8.524   1.165  -0.048  0.00  0.00    -0.020 A 
ATOM     20  C   UNL     1       8.830   2.488   0.300  0.00  0.00    +0.117 A 
ATOM     21  C   UNL     1       7.845   3.476   0.209  0.00  0.00    -0.020 A 
ATOM     22  C   UNL     1       6.558   3.148  -0.230  0.00  0.00    -0.055 A 
ATOM     23  H   UNL     1       7.012  -0.193  -0.743  0.00  0.00    +0.062 HD
ATOM     24  H   UNL     1       9.279   0.393   0.025  0.00  0.00    +0.065 HD
ATOM     25  H   UNL     1       8.075   4.498   0.482  0.00  0.00    +0.065 HD
ATOM     26  H   UNL     1       5.803   3.922  -0.285  0.00  0.00    +0.062 HD
BRANCH  20  27
ATOM     27  O   UNL     1      10.108   2.829   0.739  0.00  0.00    -0.507 OA
ATOM     28  H   UNL     1      10.843   2.136   0.816  0.00  0.00    +0.292 HD
ENDBRANCH  20  27
ENDBRANCH  14  17
ENDBRANCH  11  14
ENDBRANCH   2  11
BRANCH   2  29
ATOM     29  C   UNL     1       1.609   0.771   1.069  0.00  0.00    -0.006 C 
ATOM     30  H   UNL     1       1.614   1.860   1.303  0.00  0.00    +0.033 HD
BRANCH  29  31
ATOM     31  C   UNL     1       0.135   0.417   0.807  0.00  0.00    -0.059 C 
ATOM     32  H   UNL     1      -0.277   1.038  -0.011  0.00  0.00    +0.023 HD
ATOM     33  H   UNL     1      -0.476   0.636   1.708  0.00  0.00    +0.023 HD
ATOM     34  H   UNL     1       0.012  -0.659   0.569  0.00  0.00    +0.023 HD
ENDBRANCH  29  31
BRANCH  29  35
ATOM     35  C   UNL     1       2.078   0.054   2.353  0.00  0.00    -0.059 C 
ATOM     36  H   UNL     1       3.122   0.320   2.613  0.00  0.00    +0.023 HD
ATOM     37  H   UNL     1       1.990  -1.048   2.262  0.00  0.00    +0.023 HD
ATOM     38  H   UNL     1       1.445   0.370   3.209  0.00  0.00    +0.023 HD
ENDBRANCH  29  35
ENDBRANCH   2  29
BRANCH   7  39
ATOM     39  O   UNL     1       0.642   1.901  -3.115  0.00  0.00    -0.479 OA
ATOM     40  H   UNL     1       0.905   2.876  -3.043  0.00  0.00    +0.295 HD
ENDBRANCH   7  39
ENDBRANCH   1   6
BRANCH   1  41
ATOM     41  C   UNL     1      -1.833  -0.588  -2.291  0.00  0.00    +0.017 A 
ATOM     42  C   UNL     1      -2.216   0.751  -2.117  0.00  0.00    -0.043 A 
ATOM     43  C   UNL     1      -3.060   1.146  -1.077  0.00  0.00    -0.028 A 
ATOM     44  C   UNL     1      -3.534   0.181  -0.175  0.00  0.00    +0.037 A 
ATOM     45  C   UNL     1      -3.228  -1.169  -0.392  0.00  0.00    -0.035 A 
ATOM     46  C   UNL     1      -2.452  -1.607  -1.494  0.00  0.00    -0.026 A 
ATOM     47  H   UNL     1      -1.814   1.506  -2.779  0.00  0.00    +0.063 HD
ATOM     48  H   UNL     1      -3.608  -1.887   0.320  0.00  0.00    +0.064 HD
BRANCH  44  49
ATOM     49  N   UNL     1      -4.304   0.571   0.977  0.00  0.00    -0.281 N 
ATOM     50  C   UNL     1      -5.438  -0.176   1.452  0.00  0.00    +0.250 C 
ATOM     51  O   UNL     1      -6.027  -0.977   0.674  0.00  0.00    -0.270 OA
ATOM     52  H   UNL     1      -4.082   1.480   1.440  0.00  0.00    +0.155 HD
BRANCH  50  53
ATOM     53  C   UNL     1      -5.950   0.011   2.830  0.00  0.00    +0.055 A 
ATOM     54  C   UNL     1      -7.260  -0.377   3.162  0.00  0.00    -0.047 A 
ATOM     55  C   UNL     1      -7.736  -0.205   4.462  0.00  0.00    -0.043 A 
ATOM     56  C   UNL     1      -6.897   0.349   5.430  0.00  0.00    +0.028 A 
ATOM     57  N   UNL     1      -5.629   0.710   5.104  0.00  0.00    -0.263 NA
ATOM     58  C   UNL     1      -5.141   0.555   3.844  0.00  0.00    +0.040 A 
ATOM     59  H   UNL     1      -7.917  -0.805   2.415  0.00  0.00    +0.063 HD
ATOM     60  H   UNL     1      -8.746  -0.498   4.718  0.00  0.00    +0.063 HD
ATOM     61  H   UNL     1      -7.253   0.487   6.442  0.00  0.00    +0.083 HD
ATOM     62  H   UNL     1      -4.116   0.839   3.647  0.00  0.00    +0.084 HD
ENDBRANCH  50  53
ENDBRANCH  44  49
BRANCH  43  63
ATOM     63  C   UNL     1      -3.382   2.606  -0.901  0.00  0.00    -0.038 C 
ATOM     64  H   UNL     1      -4.461   2.736  -0.672  0.00  0.00    +0.028 HD
ATOM     65  H   UNL     1      -3.164   3.183  -1.825  0.00  0.00    +0.028 HD
ATOM     66  H   UNL     1      -2.775   3.022  -0.071  0.00  0.00    +0.028 HD
ENDBRANCH  43  63
BRANCH  46  67
ATOM     67  C   UNL     1      -2.413  -3.144  -1.749  0.00  0.00    -0.012 C 
BRANCH  67  68
ATOM     68  C   UNL     1      -1.696  -3.845  -0.575  0.00  0.00    -0.056 C 
ATOM     69  H   UNL     1      -2.271  -3.751   0.370  0.00  0.00    +0.024 HD
ATOM     70  H   UNL     1      -0.696  -3.401  -0.405  0.00  0.00    +0.024 HD
ATOM     71  H   UNL     1      -1.570  -4.931  -0.778  0.00  0.00    +0.024 HD
ENDBRANCH  67  68
BRANCH  67  72
ATOM     72  C   UNL     1      -3.867  -3.681  -1.836  0.00  0.00    -0.056 C 
ATOM     73  H   UNL     1      -4.422  -3.564  -0.883  0.00  0.00    +0.024 HD
ATOM     74  H   UNL     1      -4.428  -3.146  -2.633  0.00  0.00    +0.024 HD
ATOM     75  H   UNL     1      -3.881  -4.768  -2.071  0.00  0.00    +0.024 HD
ENDBRANCH  67  72
BRANCH  67  76
ATOM     76  C   UNL     1      -1.728  -3.579  -3.065  0.00  0.00    -0.056 C 
ATOM     77  H   UNL     1      -2.154  -3.032  -3.933  0.00  0.00    +0.024 HD
ATOM     78  H   UNL     1      -1.886  -4.664  -3.254  0.00  0.00    +0.024 HD
ATOM     79  H   UNL     1      -0.631  -3.453  -3.018  0.00  0.00    +0.024 HD
ENDBRANCH  67  76
ENDBRANCH  46  67
ENDBRANCH   1  41
TORSDOF 17
