REMARK  Name = 
REMARK  17 active torsions:
REMARK  status: ('A' for Active; 'I' for Inactive)
REMARK    1  A    between atoms: C_1  and  O_2
REMARK    2  A    between atoms: O_2  and  C_3
REMARK    3  A    between atoms: C_6  and  S_7
REMARK    4  A    between atoms: S_7  and  N_10
REMARK    5  A    between atoms: N_10  and  C_11
REMARK    6  A    between atoms: N_10  and  C_15
REMARK    7  A    between atoms: C_11  and  C_12
REMARK    8  A    between atoms: C_12  and  C_13
REMARK    9  A    between atoms: C_12  and  C_14
REMARK   10  A    between atoms: C_15  and  C_16
REMARK   11  A    between atoms: C_16  and  O_17
REMARK   12  A    between atoms: C_16  and  C_18
REMARK   13  A    between atoms: C_18  and  C_19
REMARK   14  A    between atoms: C_18  and  N_26
REMARK   15  A    between atoms: C_19  and  C_20
REMARK   16  A    between atoms: C_27  and  O_29
REMARK   17  A    between atoms: O_29  and  C_30
REMARK                            x       y       z     vdW  Elec       q    Type
REMARK                         _______ _______ _______ _____ _____    ______ ____
ROOT
ATOM      1  C   UNL     1       0.807  -0.379  -1.074  0.00  0.00    +0.057 C 
ATOM      2  H   UNL     1       0.521  -0.131  -2.122  0.00  0.00    +0.053 HD
ENDROOT
BRANCH   1   3
ATOM      3  N   UNL     1       1.947   0.488  -0.734  0.00  0.00    -0.275 N 
ATOM      4  C   UNL     1       2.685   0.456   0.496  0.00  0.00    +0.401 C 
ATOM      5  O   UNL     1       2.488  -0.458   1.343  0.00  0.00    -0.226 OA
ATOM      6  H   UNL     1       2.235   1.204  -1.439  0.00  0.00    +0.152 HD
BRANCH   4   7
ATOM      7  O   UNL     1       3.644   1.445   0.737  0.00  0.00    -0.444 OA
BRANCH   7   8
ATOM      8  C   UNL     1       4.497   1.439   1.883  0.00  0.00    +0.135 C 
ATOM      9  C   UNL     1       5.201   2.765   2.049  0.00  0.00    +0.088 C 
ATOM     10  O   UNL     1       6.403   2.542   2.746  0.00  0.00    -0.347 OA
ATOM     11  C   UNL     1       6.791   1.204   2.514  0.00  0.00    +0.165 C 
ATOM     12  O   UNL     1       8.017   1.206   1.796  0.00  0.00    -0.351 OA
ATOM     13  C   UNL     1       8.353  -0.110   1.400  0.00  0.00    +0.051 C 
ATOM     14  C   UNL     1       7.396  -0.618   0.305  0.00  0.00    -0.029 C 
ATOM     15  C   UNL     1       6.071   0.152   0.322  0.00  0.00    -0.040 C 
ATOM     16  C   UNL     1       5.653   0.468   1.772  0.00  0.00    +0.049 C 
ATOM     17  H   UNL     1       3.908   1.230   2.806  0.00  0.00    +0.076 HD
ATOM     18  H   UNL     1       4.562   3.473   2.619  0.00  0.00    +0.060 HD
ATOM     19  H   UNL     1       5.433   3.214   1.058  0.00  0.00    +0.060 HD
ATOM     20  H   UNL     1       6.948   0.726   3.508  0.00  0.00    +0.091 HD
ATOM     21  H   UNL     1       9.390  -0.108   1.003  0.00  0.00    +0.056 HD
ATOM     22  H   UNL     1       8.347  -0.802   2.274  0.00  0.00    +0.056 HD
ATOM     23  H   UNL     1       7.201  -1.701   0.465  0.00  0.00    +0.029 HD
ATOM     24  H   UNL     1       7.868  -0.502  -0.695  0.00  0.00    +0.029 HD
ATOM     25  H   UNL     1       6.197   1.099  -0.250  0.00  0.00    +0.027 HD
ATOM     26  H   UNL     1       5.290  -0.450  -0.183  0.00  0.00    +0.027 HD
ATOM     27  H   UNL     1       5.400  -0.484   2.291  0.00  0.00    +0.039 HD
ENDBRANCH   7   8
ENDBRANCH   4   7
ENDBRANCH   1   3
BRANCH   1  28
ATOM     28  C   UNL     1       1.196  -1.879  -1.063  0.00  0.00    -0.007 C 
ATOM     29  H   UNL     1       1.335  -2.242  -0.023  0.00  0.00    +0.033 HD
ATOM     30  H   UNL     1       0.368  -2.480  -1.494  0.00  0.00    +0.033 HD
BRANCH  28  31
ATOM     31  C   UNL     1       2.434  -2.147  -1.881  0.00  0.00    -0.046 A 
ATOM     32  C   UNL     1       3.645  -2.487  -1.254  0.00  0.00    -0.059 A 
ATOM     33  C   UNL     1       4.795  -2.716  -2.016  0.00  0.00    -0.062 A 
ATOM     34  C   UNL     1       4.745  -2.611  -3.408  0.00  0.00    -0.062 A 
ATOM     35  C   UNL     1       3.544  -2.279  -4.041  0.00  0.00    -0.062 A 
ATOM     36  C   UNL     1       2.392  -2.049  -3.283  0.00  0.00    -0.059 A 
ATOM     37  H   UNL     1       3.702  -2.569  -0.175  0.00  0.00    +0.062 HD
ATOM     38  H   UNL     1       5.725  -2.972  -1.526  0.00  0.00    +0.062 HD
ATOM     39  H   UNL     1       5.636  -2.787  -3.996  0.00  0.00    +0.062 HD
ATOM     40  H   UNL     1       3.506  -2.199  -5.120  0.00  0.00    +0.062 HD
ATOM     41  H   UNL     1       1.468  -1.792  -3.786  0.00  0.00    +0.062 HD
ENDBRANCH  28  31
ENDBRANCH   1  28
BRANCH   1  42
ATOM     42  C   UNL     1      -0.420  -0.043  -0.183  0.00  0.00    +0.088 C 
ATOM     43  H   UNL     1      -0.473   1.068  -0.157  0.00  0.00    +0.063 HD
BRANCH  42  44
ATOM     44  C   UNL     1      -1.737  -0.597  -0.801  0.00  0.00    +0.048 C 
ATOM     45  H   UNL     1      -1.810  -0.254  -1.856  0.00  0.00    +0.047 HD
ATOM     46  H   UNL     1      -1.680  -1.703  -0.848  0.00  0.00    +0.047 HD
BRANCH  44  47
ATOM     47  N   UNL     1      -2.991  -0.201  -0.113  0.00  0.00    -0.174 NA
BRANCH  47  48
ATOM     48  C   UNL     1      -3.290  -0.963   1.121  0.00  0.00    +0.023 C 
ATOM     49  H   UNL     1      -2.402  -1.514   1.492  0.00  0.00    +0.045 HD
ATOM     50  H   UNL     1      -3.596  -0.289   1.950  0.00  0.00    +0.045 HD
BRANCH  48  51
ATOM     51  C   UNL     1      -4.419  -1.993   0.896  0.00  0.00    -0.032 C 
ATOM     52  H   UNL     1      -4.590  -2.511   1.866  0.00  0.00    +0.031 HD
BRANCH  51  53
ATOM     53  C   UNL     1      -4.028  -3.066  -0.128  0.00  0.00    -0.061 C 
ATOM     54  H   UNL     1      -4.809  -3.855  -0.168  0.00  0.00    +0.023 HD
ATOM     55  H   UNL     1      -3.070  -3.547   0.164  0.00  0.00    +0.023 HD
ATOM     56  H   UNL     1      -3.923  -2.626  -1.143  0.00  0.00    +0.023 HD
ENDBRANCH  51  53
BRANCH  51  57
ATOM     57  C   UNL     1      -5.739  -1.326   0.497  0.00  0.00    -0.061 C 
ATOM     58  H   UNL     1      -6.041  -0.583   1.264  0.00  0.00    +0.023 HD
ATOM     59  H   UNL     1      -6.545  -2.088   0.427  0.00  0.00    +0.023 HD
ATOM     60  H   UNL     1      -5.645  -0.825  -0.489  0.00  0.00    +0.023 HD
ENDBRANCH  51  57
ENDBRANCH  48  51
ENDBRANCH  47  48
BRANCH  47  61
ATOM     61  S   UNL     1      -3.163   1.531   0.087  0.00  0.00    +0.061 S 
ATOM     62  O   UNL     1      -2.638   2.247  -1.127  0.00  0.00    -0.153 OA
ATOM     63  O   UNL     1      -2.391   1.998   1.291  0.00  0.00    -0.153 OA
BRANCH  61  67
ATOM     64  C   UNL     1      -7.588   2.569   0.598  0.00  0.00    +0.120 A 
ATOM     65  C   UNL     1      -6.743   2.509   1.713  0.00  0.00    -0.018 A 
ATOM     66  C   UNL     1      -5.388   2.200   1.561  0.00  0.00    -0.032 A 
ATOM     67  C   UNL     1      -4.861   1.948   0.287  0.00  0.00    +0.106 A 
ATOM     68  C   UNL     1      -5.700   2.011  -0.832  0.00  0.00    -0.032 A 
ATOM     69  C   UNL     1      -7.056   2.319  -0.681  0.00  0.00    -0.018 A 
ATOM     70  H   UNL     1      -7.140   2.697   2.702  0.00  0.00    +0.065 HD
ATOM     71  H   UNL     1      -4.756   2.148   2.438  0.00  0.00    +0.064 HD
ATOM     72  H   UNL     1      -5.307   1.812  -1.821  0.00  0.00    +0.064 HD
ATOM     73  H   UNL     1      -7.680   2.355  -1.563  0.00  0.00    +0.065 HD
BRANCH  64  74
ATOM     74  O   UNL     1      -8.941   2.878   0.803  0.00  0.00    -0.495 OA
BRANCH  74  75
ATOM     75  C   UNL     1      -9.911   2.969  -0.235  0.00  0.00    +0.079 C 
ATOM     76  H   UNL     1      -9.627   3.766  -0.955  0.00  0.00    +0.066 HD
ATOM     77  H   UNL     1     -10.894   3.225   0.209  0.00  0.00    +0.066 HD
ATOM     78  H   UNL     1     -10.000   1.994  -0.760  0.00  0.00    +0.066 HD
ENDBRANCH  74  75
ENDBRANCH  64  74
ENDBRANCH  61  67
ENDBRANCH  47  61
ENDBRANCH  44  47
ENDBRANCH  42  44
BRANCH  42  79
ATOM     79  O   UNL     1      -0.229  -0.556   1.110  0.00  0.00    -0.389 OA
ATOM     80  H   UNL     1      -0.524   0.139   1.754  0.00  0.00    +0.210 HD
ENDBRANCH  42  79
ENDBRANCH   1  42
TORSDOF 17
