REMARK  Name = 
REMARK  10 active torsions:
REMARK  status: ('A' for Active; 'I' for Inactive)
REMARK    1  A    between atoms: C_1  and  C_2
REMARK    2  A    between atoms: C_2  and  C_3
REMARK    3  A    between atoms: C_3  and  C_4
REMARK    4  A    between atoms: C_3  and  C_25
REMARK    5  A    between atoms: C_8  and  N_9
REMARK    6  A    between atoms: C_10  and  C_12
REMARK    7  A    between atoms: C_12  and  C_13
REMARK    8  A    between atoms: C_13  and  N_14
REMARK    9  A    between atoms: N_14  and  C_15
REMARK   10  A    between atoms: C_26  and  O_27
REMARK                            x       y       z     vdW  Elec       q    Type
REMARK                         _______ _______ _______ _____ _____    ______ ____
ROOT
ATOM      1  C   UNL     1      -2.507  -1.282   1.153  0.00  0.00    -0.038 A 
ATOM      2  C   UNL     1      -2.580  -2.173   2.238  0.00  0.00    -0.058 A 
ATOM      3  C   UNL     1      -1.420  -2.686   2.819  0.00  0.00    -0.060 A 
ATOM      4  C   UNL     1      -0.167  -2.321   2.325  0.00  0.00    -0.040 A 
ATOM      5  C   UNL     1      -0.065  -1.442   1.234  0.00  0.00    +0.034 A 
ATOM      6  C   UNL     1      -1.234  -0.911   0.668  0.00  0.00    -0.037 A 
ATOM      7  H   UNL     1      -3.543  -2.463   2.643  0.00  0.00    +0.062 HD
ATOM      8  H   UNL     1      -1.491  -3.360   3.662  0.00  0.00    +0.062 HD
ATOM      9  H   UNL     1       0.719  -2.702   2.816  0.00  0.00    +0.064 HD
ATOM     10  H   UNL     1      -1.136  -0.214  -0.152  0.00  0.00    +0.064 HD
ENDROOT
BRANCH   5  11
ATOM     11  N   UNL     1       1.214  -1.024   0.727  0.00  0.00    -0.285 N 
ATOM     12  C   UNL     1       2.374  -1.869   0.674  0.00  0.00    +0.218 C 
ATOM     13  O   UNL     1       2.276  -3.110   0.873  0.00  0.00    -0.275 OA
ATOM     14  H   UNL     1       1.283  -0.077   0.290  0.00  0.00    +0.155 HD
BRANCH  12  15
ATOM     15  C   UNL     1       3.702  -1.292   0.285  0.00  0.00    +0.037 C 
ATOM     16  H   UNL     1       3.788  -0.260   0.689  0.00  0.00    +0.037 HD
ATOM     17  H   UNL     1       4.517  -1.904   0.730  0.00  0.00    +0.037 HD
BRANCH  15  18
ATOM     18  C   UNL     1       3.851  -1.262  -1.238  0.00  0.00    +0.005 C 
ATOM     19  H   UNL     1       3.017  -0.661  -1.662  0.00  0.00    +0.043 HD
ATOM     20  H   UNL     1       3.781  -2.300  -1.637  0.00  0.00    +0.043 HD
BRANCH  18  21
ATOM     21  N   UNL     1       5.143  -0.666  -1.602  0.00  0.00    -0.306 NA
ATOM     22  H   UNL     1       5.886  -1.333  -1.284  0.00  0.00    +0.123 HD
BRANCH  21  23
ATOM     23  C   UNL     1       5.258  -0.511  -3.061  0.00  0.00    +0.052 C 
ATOM     24  C   UNL     1       4.525   0.726  -3.529  0.00  0.00    -0.062 C 
ATOM     25  C   UNL     1       5.346   1.624  -4.068  0.00  0.00    -0.056 C 
ATOM     26  C   UNL     1       6.689   1.091  -4.030  0.00  0.00    -0.020 A 
ATOM     27  C   UNL     1       7.875   1.655  -4.500  0.00  0.00    -0.054 A 
ATOM     28  C   UNL     1       9.060   0.912  -4.371  0.00  0.00    -0.061 A 
ATOM     29  C   UNL     1       9.034  -0.371  -3.787  0.00  0.00    -0.061 A 
ATOM     30  C   UNL     1       7.824  -0.916  -3.325  0.00  0.00    -0.056 A 
ATOM     31  C   UNL     1       6.659  -0.154  -3.452  0.00  0.00    -0.020 A 
ATOM     32  H   UNL     1       4.921  -1.417  -3.613  0.00  0.00    +0.055 HD
ATOM     33  H   UNL     1       3.456   0.874  -3.452  0.00  0.00    +0.059 HD
ATOM     34  H   UNL     1       5.046   2.580  -4.476  0.00  0.00    +0.062 HD
ATOM     35  H   UNL     1       7.882   2.636  -4.956  0.00  0.00    +0.062 HD
ATOM     36  H   UNL     1       9.995   1.324  -4.727  0.00  0.00    +0.062 HD
ATOM     37  H   UNL     1       9.950  -0.940  -3.697  0.00  0.00    +0.062 HD
ATOM     38  H   UNL     1       7.796  -1.903  -2.884  0.00  0.00    +0.062 HD
ENDBRANCH  21  23
ENDBRANCH  18  21
ENDBRANCH  15  18
ENDBRANCH  12  15
ENDBRANCH   5  11
BRANCH   1  39
ATOM     39  C   UNL     1      -3.805  -0.723   0.583  0.00  0.00    +0.019 C 
ATOM     40  H   UNL     1      -4.484  -1.601   0.508  0.00  0.00    +0.040 HD
BRANCH  39  41
ATOM     41  C   UNL     1      -4.407   0.313   1.533  0.00  0.00    +0.087 A 
ATOM     42  C   UNL     1      -3.705   1.489   1.883  0.00  0.00    +0.292 A 
ATOM     43  O   UNL     1      -4.246   2.382   2.706  0.00  0.00    -0.425 OA
ATOM     44  C   UNL     1      -5.452   2.239   3.239  0.00  0.00    +0.143 A 
ATOM     45  C   UNL     1      -5.951   3.225   4.097  0.00  0.00    -0.019 A 
ATOM     46  C   UNL     1      -7.220   3.086   4.664  0.00  0.00    -0.058 A 
ATOM     47  C   UNL     1      -7.997   1.961   4.377  0.00  0.00    -0.061 A 
ATOM     48  C   UNL     1      -7.509   0.969   3.521  0.00  0.00    -0.047 A 
ATOM     49  C   UNL     1      -6.230   1.099   2.945  0.00  0.00    +0.064 A 
ATOM     50  C   UNL     1      -5.697   0.130   2.079  0.00  0.00    +0.200 A 
ATOM     51  O   UNL     1      -6.371  -0.898   1.793  0.00  0.00    -0.287 OA
ATOM     52  H   UNL     1      -5.355   4.100   4.324  0.00  0.00    +0.065 HD
ATOM     53  H   UNL     1      -7.603   3.851   5.327  0.00  0.00    +0.062 HD
ATOM     54  H   UNL     1      -8.980   1.857   4.818  0.00  0.00    +0.062 HD
ATOM     55  H   UNL     1      -8.129   0.106   3.313  0.00  0.00    +0.063 HD
BRANCH  42  56
ATOM     56  O   UNL     1      -2.434   1.734   1.376  0.00  0.00    -0.480 OA
ATOM     57  H   UNL     1      -1.928   2.575   1.627  0.00  0.00    +0.295 HD
ENDBRANCH  42  56
ENDBRANCH  39  41
BRANCH  39  58
ATOM     58  C   UNL     1      -3.691  -0.180  -0.862  0.00  0.00    -0.045 C 
ATOM     59  H   UNL     1      -3.105   0.762  -0.891  0.00  0.00    +0.027 HD
ATOM     60  H   UNL     1      -3.167  -0.930  -1.494  0.00  0.00    +0.027 HD
BRANCH  58  61
ATOM     61  C   UNL     1      -5.061   0.086  -1.488  0.00  0.00    -0.064 C 
ATOM     62  H   UNL     1      -4.929   0.426  -2.537  0.00  0.00    +0.023 HD
ATOM     63  H   UNL     1      -5.673  -0.840  -1.491  0.00  0.00    +0.023 HD
ATOM     64  H   UNL     1      -5.598   0.881  -0.928  0.00  0.00    +0.023 HD
ENDBRANCH  58  61
ENDBRANCH  39  58
ENDBRANCH   1  39
TORSDOF 10
