REMARK  Name = 
REMARK  10 active torsions:
REMARK  status: ('A' for Active; 'I' for Inactive)
REMARK    1  A    between atoms: C_1  and  C_2
REMARK    2  A    between atoms: C_2  and  C_3
REMARK    3  A    between atoms: C_3  and  C_4
REMARK    4  A    between atoms: C_3  and  C_25
REMARK    5  A    between atoms: C_8  and  N_9
REMARK    6  A    between atoms: C_10  and  C_12
REMARK    7  A    between atoms: C_12  and  C_13
REMARK    8  A    between atoms: C_13  and  N_14
REMARK    9  A    between atoms: N_14  and  C_15
REMARK   10  A    between atoms: C_26  and  O_27
REMARK                            x       y       z     vdW  Elec       q    Type
REMARK                         _______ _______ _______ _____ _____    ______ ____
ROOT
ATOM      1  C   UNL     1      -2.568   0.330   2.343  0.00  0.00    -0.038 A 
ATOM      2  C   UNL     1      -2.149  -0.184   3.583  0.00  0.00    -0.058 A 
ATOM      3  C   UNL     1      -0.799  -0.160   3.939  0.00  0.00    -0.060 A 
ATOM      4  C   UNL     1       0.150   0.364   3.060  0.00  0.00    -0.040 A 
ATOM      5  C   UNL     1      -0.241   0.861   1.809  0.00  0.00    +0.034 A 
ATOM      6  C   UNL     1      -1.604   0.863   1.466  0.00  0.00    -0.037 A 
ATOM      7  H   UNL     1      -2.868  -0.598   4.279  0.00  0.00    +0.062 HD
ATOM      8  H   UNL     1      -0.487  -0.550   4.899  0.00  0.00    +0.062 HD
ATOM      9  H   UNL     1       1.194   0.373   3.347  0.00  0.00    +0.064 HD
ATOM     10  H   UNL     1      -1.917   1.299   0.529  0.00  0.00    +0.064 HD
ENDROOT
BRANCH   5  11
ATOM     11  N   UNL     1       0.753   1.404   0.924  0.00  0.00    -0.285 N 
ATOM     12  C   UNL     1       0.713   1.272  -0.506  0.00  0.00    +0.218 C 
ATOM     13  O   UNL     1      -0.139   0.525  -1.060  0.00  0.00    -0.275 OA
ATOM     14  H   UNL     1       1.609   1.825   1.351  0.00  0.00    +0.155 HD
BRANCH  12  15
ATOM     15  C   UNL     1       1.752   1.949  -1.351  0.00  0.00    +0.037 C 
ATOM     16  H   UNL     1       1.306   2.223  -2.331  0.00  0.00    +0.037 HD
ATOM     17  H   UNL     1       2.086   2.889  -0.860  0.00  0.00    +0.037 HD
BRANCH  15  18
ATOM     18  C   UNL     1       2.953   1.031  -1.587  0.00  0.00    +0.005 C 
ATOM     19  H   UNL     1       2.597   0.097  -2.077  0.00  0.00    +0.043 HD
ATOM     20  H   UNL     1       3.655   1.544  -2.280  0.00  0.00    +0.043 HD
BRANCH  18  21
ATOM     21  N   UNL     1       3.627   0.744  -0.313  0.00  0.00    -0.306 NA
ATOM     22  H   UNL     1       4.216   1.569  -0.046  0.00  0.00    +0.123 HD
BRANCH  21  23
ATOM     23  C   UNL     1       4.455  -0.472  -0.371  0.00  0.00    +0.052 C 
ATOM     24  C   UNL     1       4.857  -0.863   1.029  0.00  0.00    -0.062 C 
ATOM     25  C   UNL     1       6.174  -0.812   1.205  0.00  0.00    -0.056 C 
ATOM     26  C   UNL     1       6.786  -0.421  -0.046  0.00  0.00    -0.020 A 
ATOM     27  C   UNL     1       8.139  -0.297  -0.359  0.00  0.00    -0.054 A 
ATOM     28  C   UNL     1       8.487   0.025  -1.681  0.00  0.00    -0.061 A 
ATOM     29  C   UNL     1       7.486   0.195  -2.658  0.00  0.00    -0.061 A 
ATOM     30  C   UNL     1       6.130   0.054  -2.316  0.00  0.00    -0.056 A 
ATOM     31  C   UNL     1       5.803  -0.232  -0.987  0.00  0.00    -0.020 A 
ATOM     32  H   UNL     1       3.927  -1.321  -0.857  0.00  0.00    +0.055 HD
ATOM     33  H   UNL     1       4.159  -1.139   1.809  0.00  0.00    +0.059 HD
ATOM     34  H   UNL     1       6.690  -1.047   2.127  0.00  0.00    +0.062 HD
ATOM     35  H   UNL     1       8.902  -0.456   0.392  0.00  0.00    +0.062 HD
ATOM     36  H   UNL     1       9.529   0.128  -1.954  0.00  0.00    +0.062 HD
ATOM     37  H   UNL     1       7.762   0.423  -3.679  0.00  0.00    +0.062 HD
ATOM     38  H   UNL     1       5.364   0.150  -3.073  0.00  0.00    +0.062 HD
ENDBRANCH  21  23
ENDBRANCH  18  21
ENDBRANCH  15  18
ENDBRANCH  12  15
ENDBRANCH   5  11
BRANCH   1  39
ATOM     39  C   UNL     1      -4.039   0.305   1.968  0.00  0.00    +0.019 C 
ATOM     40  H   UNL     1      -4.607  -0.189   2.788  0.00  0.00    +0.040 HD
BRANCH  39  41
ATOM     41  C   UNL     1      -4.256  -0.561   0.721  0.00  0.00    +0.087 A 
ATOM     42  C   UNL     1      -4.377  -1.960   0.879  0.00  0.00    +0.292 A 
ATOM     43  O   UNL     1      -4.525  -2.757  -0.174  0.00  0.00    -0.425 OA
ATOM     44  C   UNL     1      -4.552  -2.309  -1.421  0.00  0.00    +0.143 A 
ATOM     45  C   UNL     1      -4.713  -3.214  -2.477  0.00  0.00    -0.019 A 
ATOM     46  C   UNL     1      -4.734  -2.757  -3.797  0.00  0.00    -0.058 A 
ATOM     47  C   UNL     1      -4.593  -1.393  -4.068  0.00  0.00    -0.061 A 
ATOM     48  C   UNL     1      -4.432  -0.481  -3.021  0.00  0.00    -0.047 A 
ATOM     49  C   UNL     1      -4.412  -0.932  -1.686  0.00  0.00    +0.064 A 
ATOM     50  C   UNL     1      -4.253  -0.052  -0.602  0.00  0.00    +0.200 A 
ATOM     51  O   UNL     1      -4.107   1.180  -0.821  0.00  0.00    -0.287 OA
ATOM     52  H   UNL     1      -4.820  -4.272  -2.274  0.00  0.00    +0.065 HD
ATOM     53  H   UNL     1      -4.858  -3.459  -4.610  0.00  0.00    +0.062 HD
ATOM     54  H   UNL     1      -4.608  -1.043  -5.092  0.00  0.00    +0.062 HD
ATOM     55  H   UNL     1      -4.325   0.571  -3.257  0.00  0.00    +0.063 HD
BRANCH  42  56
ATOM     56  O   UNL     1      -4.335  -2.533   2.148  0.00  0.00    -0.480 OA
ATOM     57  H   UNL     1      -4.417  -3.535   2.268  0.00  0.00    +0.295 HD
ENDBRANCH  42  56
ENDBRANCH  39  41
BRANCH  39  58
ATOM     58  C   UNL     1      -4.637   1.732   1.888  0.00  0.00    -0.045 C 
ATOM     59  H   UNL     1      -3.998   2.400   1.273  0.00  0.00    +0.027 HD
ATOM     60  H   UNL     1      -5.646   1.684   1.422  0.00  0.00    +0.027 HD
BRANCH  58  61
ATOM     61  C   UNL     1      -4.782   2.372   3.269  0.00  0.00    -0.064 C 
ATOM     62  H   UNL     1      -5.454   1.764   3.912  0.00  0.00    +0.023 HD
ATOM     63  H   UNL     1      -5.221   3.387   3.163  0.00  0.00    +0.023 HD
ATOM     64  H   UNL     1      -3.791   2.467   3.760  0.00  0.00    +0.023 HD
ENDBRANCH  58  61
ENDBRANCH  39  58
ENDBRANCH   1  39
TORSDOF 10
