REMARK  Name = 
REMARK  16 active torsions:
REMARK  status: ('A' for Active; 'I' for Inactive)
REMARK    1  A    between atoms: C_1  and  C_2
REMARK    2  A    between atoms: C_2  and  C_3
REMARK    3  A    between atoms: C_2  and  C_4
REMARK    4  A    between atoms: C_4  and  C_5
REMARK    5  A    between atoms: C_5  and  C_6
REMARK    6  A    between atoms: C_6  and  C_7
REMARK    7  A    between atoms: C_19  and  S_20
REMARK    8  A    between atoms: S_20  and  C_21
REMARK    9  A    between atoms: C_23  and  C_24
REMARK   10  A    between atoms: C_25  and  C_26
REMARK   11  A    between atoms: C_26  and  O_27
REMARK   12  A    between atoms: C_29  and  C_30
REMARK   13  A    between atoms: C_30  and  C_31
REMARK   14  A    between atoms: C_30  and  C_32
REMARK   15  A    between atoms: C_30  and  C_33
REMARK   16  A    between atoms: C_34  and  O_35
REMARK                            x       y       z     vdW  Elec       q    Type
REMARK                         _______ _______ _______ _____ _____    ______ ____
ROOT
ATOM      1  C   UNL     1       1.598  -1.939   0.422  0.00  0.00    +0.123 C 
ATOM      2  C   UNL     1       0.633  -2.163  -0.777  0.00  0.00    +0.051 C 
ATOM      3  C   UNL     1      -0.717  -2.580  -0.281  0.00  0.00    +0.180 C 
ATOM      4  O   UNL     1      -1.378  -3.450  -0.909  0.00  0.00    -0.291 OA
ATOM      5  C   UNL     1      -1.272  -1.943   0.927  0.00  0.00    +0.135 C 
ATOM      6  C   UNL     1      -0.432  -1.276   1.742  0.00  0.00    +0.297 C 
ATOM      7  O   UNL     1       0.923  -1.133   1.403  0.00  0.00    -0.456 OA
ATOM      8  H   UNL     1       0.483  -1.225  -1.346  0.00  0.00    +0.038 HD
ATOM      9  H   UNL     1       1.030  -2.911  -1.492  0.00  0.00    +0.038 HD
ENDROOT
BRANCH   1  10
ATOM     10  C   UNL     1       2.869  -1.174  -0.058  0.00  0.00    -0.006 C 
ATOM     11  H   UNL     1       3.667  -1.254   0.708  0.00  0.00    +0.031 HD
ATOM     12  H   UNL     1       3.256  -1.645  -0.989  0.00  0.00    +0.031 HD
BRANCH  10  13
ATOM     13  C   UNL     1       2.639   0.326  -0.320  0.00  0.00    -0.000 C 
ATOM     14  H   UNL     1       1.873   0.483  -1.105  0.00  0.00    +0.033 HD
ATOM     15  H   UNL     1       2.293   0.829   0.608  0.00  0.00    +0.033 HD
BRANCH  13  16
ATOM     16  C   UNL     1       3.911   0.973  -0.768  0.00  0.00    +0.080 A 
ATOM     17  N   UNL     1       4.303   1.018  -2.065  0.00  0.00    -0.244 NA
ATOM     18  C   UNL     1       5.521   1.604  -2.183  0.00  0.00    +0.078 A 
ATOM     19  C   UNL     1       6.189   1.800  -3.393  0.00  0.00    -0.035 A 
ATOM     20  C   UNL     1       7.452   2.416  -3.376  0.00  0.00    -0.060 A 
ATOM     21  C   UNL     1       8.031   2.825  -2.157  0.00  0.00    -0.061 A 
ATOM     22  C   UNL     1       7.351   2.620  -0.945  0.00  0.00    -0.046 A 
ATOM     23  C   UNL     1       6.100   2.010  -0.991  0.00  0.00    +0.039 A 
ATOM     24  S   UNL     1       5.070   1.632   0.279  0.00  0.00    -0.072 S 
ATOM     25  H   UNL     1       5.744   1.485  -4.329  0.00  0.00    +0.064 HD
ATOM     26  H   UNL     1       7.985   2.577  -4.304  0.00  0.00    +0.062 HD
ATOM     27  H   UNL     1       9.004   3.297  -2.154  0.00  0.00    +0.062 HD
ATOM     28  H   UNL     1       7.788   2.928  -0.004  0.00  0.00    +0.063 HD
ENDBRANCH  13  16
ENDBRANCH  10  13
ENDBRANCH   1  10
BRANCH   6  29
ATOM     29  O   UNL     1      -0.858  -0.714   2.943  0.00  0.00    -0.479 OA
ATOM     30  H   UNL     1      -1.758  -0.916   3.352  0.00  0.00    +0.295 HD
ENDBRANCH   6  29
BRANCH   1  31
ATOM     31  C   UNL     1       1.980  -3.320   1.086  0.00  0.00    -0.006 C 
ATOM     32  H   UNL     1       1.050  -3.917   1.206  0.00  0.00    +0.033 HD
BRANCH  31  33
ATOM     33  C   UNL     1       2.554  -3.161   2.508  0.00  0.00    -0.059 C 
ATOM     34  H   UNL     1       2.741  -4.161   2.956  0.00  0.00    +0.023 HD
ATOM     35  H   UNL     1       1.834  -2.638   3.171  0.00  0.00    +0.023 HD
ATOM     36  H   UNL     1       3.512  -2.603   2.503  0.00  0.00    +0.023 HD
ENDBRANCH  31  33
BRANCH  31  37
ATOM     37  C   UNL     1       2.945  -4.178   0.243  0.00  0.00    -0.059 C 
ATOM     38  H   UNL     1       2.549  -4.356  -0.776  0.00  0.00    +0.023 HD
ATOM     39  H   UNL     1       3.079  -5.172   0.720  0.00  0.00    +0.023 HD
ATOM     40  H   UNL     1       3.944  -3.700   0.165  0.00  0.00    +0.023 HD
ENDBRANCH  31  37
ENDBRANCH   1  31
BRANCH   5  41
ATOM     41  S   UNL     1      -3.049  -2.073   1.247  0.00  0.00    -0.079 S 
BRANCH  41  42
ATOM     42  C   UNL     1      -3.493  -0.594   0.297  0.00  0.00    +0.017 A 
ATOM     43  C   UNL     1      -3.308  -0.695  -1.090  0.00  0.00    -0.044 A 
ATOM     44  C   UNL     1      -3.335   0.428  -1.921  0.00  0.00    -0.044 A 
ATOM     45  C   UNL     1      -3.522   1.698  -1.344  0.00  0.00    -0.019 A 
ATOM     46  C   UNL     1      -3.837   1.790   0.019  0.00  0.00    -0.051 A 
ATOM     47  C   UNL     1      -3.928   0.651   0.857  0.00  0.00    -0.028 A 
ATOM     48  H   UNL     1      -3.091  -1.661  -1.525  0.00  0.00    +0.063 HD
ATOM     49  H   UNL     1      -4.039   2.773   0.420  0.00  0.00    +0.062 HD
BRANCH  44  50
ATOM     50  C   UNL     1      -3.066   0.258  -3.393  0.00  0.00    -0.039 C 
ATOM     51  H   UNL     1      -3.787   0.854  -3.991  0.00  0.00    +0.028 HD
ATOM     52  H   UNL     1      -3.174  -0.802  -3.706  0.00  0.00    +0.028 HD
ATOM     53  H   UNL     1      -2.031   0.589  -3.623  0.00  0.00    +0.028 HD
ENDBRANCH  44  50
BRANCH  45  54
ATOM     54  C   UNL     1      -3.491   2.960  -2.171  0.00  0.00    +0.069 C 
ATOM     55  H   UNL     1      -3.257   3.839  -1.530  0.00  0.00    +0.061 HD
ATOM     56  H   UNL     1      -2.690   2.899  -2.941  0.00  0.00    +0.061 HD
BRANCH  54  57
ATOM     57  O   UNL     1      -4.736   3.145  -2.784  0.00  0.00    -0.390 OA
ATOM     58  H   UNL     1      -4.657   3.972  -3.326  0.00  0.00    +0.210 HD
ENDBRANCH  54  57
ENDBRANCH  45  54
BRANCH  47  59
ATOM     59  C   UNL     1      -4.567   0.860   2.263  0.00  0.00    -0.012 C 
BRANCH  59  60
ATOM     60  C   UNL     1      -4.905  -0.441   3.028  0.00  0.00    -0.056 C 
ATOM     61  H   UNL     1      -4.003  -0.928   3.438  0.00  0.00    +0.024 HD
ATOM     62  H   UNL     1      -5.538  -0.229   3.917  0.00  0.00    +0.024 HD
ATOM     63  H   UNL     1      -5.472  -1.145   2.381  0.00  0.00    +0.024 HD
ENDBRANCH  59  60
BRANCH  59  64
ATOM     64  C   UNL     1      -3.625   1.715   3.136  0.00  0.00    -0.056 C 
ATOM     65  H   UNL     1      -4.037   1.833   4.162  0.00  0.00    +0.024 HD
ATOM     66  H   UNL     1      -3.488   2.730   2.708  0.00  0.00    +0.024 HD
ATOM     67  H   UNL     1      -2.625   1.244   3.212  0.00  0.00    +0.024 HD
ENDBRANCH  59  64
BRANCH  59  68
ATOM     68  C   UNL     1      -5.917   1.613   2.107  0.00  0.00    -0.056 C 
ATOM     69  H   UNL     1      -6.440   1.710   3.084  0.00  0.00    +0.024 HD
ATOM     70  H   UNL     1      -6.586   1.064   1.409  0.00  0.00    +0.024 HD
ATOM     71  H   UNL     1      -5.790   2.647   1.730  0.00  0.00    +0.024 HD
ENDBRANCH  59  68
ENDBRANCH  47  59
ENDBRANCH  41  42
ENDBRANCH   5  41
TORSDOF 16
