REMARK  Name = 
REMARK  18 active torsions:
REMARK  status: ('A' for Active; 'I' for Inactive)
REMARK    1  A    between atoms: C_1  and  C_2
REMARK    2  A    between atoms: C_2  and  C_3
REMARK    3  A    between atoms: C_2  and  C_4
REMARK    4  A    between atoms: C_4  and  N_5
REMARK    5  A    between atoms: C_4  and  C_41
REMARK    6  A    between atoms: C_6  and  C_8
REMARK    7  A    between atoms: C_8  and  C_9
REMARK    8  A    between atoms: C_11  and  C_12
REMARK    9  A    between atoms: C_12  and  C_13
REMARK   10  A    between atoms: C_12  and  N_20
REMARK   11  A    between atoms: C_13  and  C_14
REMARK   12  A    between atoms: C_21  and  C_23
REMARK   13  A    between atoms: C_23  and  C_24
REMARK   14  A    between atoms: C_23  and  N_28
REMARK   15  A    between atoms: C_24  and  C_25
REMARK   16  A    between atoms: C_29  and  C_31
REMARK   17  A    between atoms: C_41  and  C_42
REMARK   18  A    between atoms: C_41  and  C_43
REMARK                            x       y       z     vdW  Elec       q    Type
REMARK                         _______ _______ _______ _____ _____    ______ ____
ROOT
ATOM      1  C   UNL     1      -0.458  -0.468  -1.051  0.00  0.00    +0.056 C 
ATOM      2  H   UNL     1      -1.397   0.065  -0.790  0.00  0.00    +0.053 HD
ENDROOT
BRANCH   1   5
ATOM      3  C   UNL     1      -2.077  -2.166  -2.302  0.00  0.00    +0.095 C 
ATOM      4  O   UNL     1      -1.932  -2.384  -0.914  0.00  0.00    -0.366 OA
ATOM      5  C   UNL     1      -0.800  -1.875  -1.580  0.00  0.00    +0.104 C 
ATOM      6  H   UNL     1      -2.152  -3.132  -2.845  0.00  0.00    +0.063 HD
ATOM      7  H   UNL     1      -0.001  -2.643  -1.645  0.00  0.00    +0.064 HD
BRANCH   3   8
ATOM      8  C   UNL     1      -3.076  -1.040  -2.630  0.00  0.00    +0.053 C 
ATOM      9  H   UNL     1      -3.507  -1.252  -3.631  0.00  0.00    +0.038 HD
ATOM     10  H   UNL     1      -2.575  -0.057  -2.727  0.00  0.00    +0.038 HD
BRANCH   8  12
ATOM     11  N   UNL     1      -4.452   0.242  -0.912  0.00  0.00    -0.312 N 
ATOM     12  C   UNL     1      -4.210  -0.967  -1.648  0.00  0.00    +0.216 C 
ATOM     13  O   UNL     1      -4.955  -1.973  -1.491  0.00  0.00    -0.276 OA
ATOM     14  H   UNL     1      -3.775   1.029  -1.028  0.00  0.00    +0.149 HD
BRANCH  11  15
ATOM     15  C   UNL     1      -5.549   0.389   0.055  0.00  0.00    +0.028 C 
ATOM     16  H   UNL     1      -6.262  -0.453  -0.092  0.00  0.00    +0.050 HD
BRANCH  15  17
ATOM     17  C   UNL     1      -5.024   0.204   1.515  0.00  0.00    -0.028 C 
ATOM     18  H   UNL     1      -4.794  -0.880   1.621  0.00  0.00    +0.031 HD
BRANCH  17  19
ATOM     19  C   UNL     1      -3.704   0.932   1.824  0.00  0.00    -0.061 C 
ATOM     20  H   UNL     1      -2.888   0.527   1.191  0.00  0.00    +0.023 HD
ATOM     21  H   UNL     1      -3.413   0.761   2.882  0.00  0.00    +0.023 HD
ATOM     22  H   UNL     1      -3.771   2.022   1.664  0.00  0.00    +0.023 HD
ENDBRANCH  17  19
BRANCH  17  23
ATOM     23  C   UNL     1      -6.087   0.512   2.580  0.00  0.00    -0.061 C 
ATOM     24  H   UNL     1      -5.739   0.162   3.575  0.00  0.00    +0.023 HD
ATOM     25  H   UNL     1      -6.285   1.602   2.648  0.00  0.00    +0.023 HD
ATOM     26  H   UNL     1      -7.034  -0.017   2.343  0.00  0.00    +0.023 HD
ENDBRANCH  17  23
ENDBRANCH  15  17
BRANCH  15  27
ATOM     27  C   UNL     1      -6.401   1.667  -0.245  0.00  0.00    -0.028 C 
ATOM     28  H   UNL     1      -7.292   1.655   0.420  0.00  0.00    +0.031 HD
BRANCH  27  29
ATOM     29  C   UNL     1      -6.946   1.619  -1.682  0.00  0.00    -0.061 C 
ATOM     30  H   UNL     1      -7.487   0.665  -1.861  0.00  0.00    +0.023 HD
ATOM     31  H   UNL     1      -6.121   1.708  -2.421  0.00  0.00    +0.023 HD
ATOM     32  H   UNL     1      -7.662   2.452  -1.850  0.00  0.00    +0.023 HD
ENDBRANCH  27  29
BRANCH  27  33
ATOM     33  C   UNL     1      -5.676   3.002  -0.011  0.00  0.00    -0.061 C 
ATOM     34  H   UNL     1      -6.289   3.844  -0.399  0.00  0.00    +0.023 HD
ATOM     35  H   UNL     1      -4.693   3.033  -0.521  0.00  0.00    +0.023 HD
ATOM     36  H   UNL     1      -5.547   3.193   1.072  0.00  0.00    +0.023 HD
ENDBRANCH  27  33
ENDBRANCH  15  27
ENDBRANCH  11  15
ENDBRANCH   8  12
ENDBRANCH   3   8
ENDBRANCH   1   5
BRANCH   1  37
ATOM     37  N   UNL     1       0.354  -0.592   0.164  0.00  0.00    -0.308 N 
ATOM     38  C   UNL     1       0.316   0.375   1.224  0.00  0.00    +0.234 C 
ATOM     39  O   UNL     1      -0.342   1.442   1.088  0.00  0.00    -0.274 OA
ATOM     40  H   UNL     1       1.023  -1.391   0.244  0.00  0.00    +0.149 HD
BRANCH  38  41
ATOM     41  C   UNL     1       1.073   0.132   2.504  0.00  0.00    +0.108 C 
ATOM     42  H   UNL     1       0.906   0.983   3.203  0.00  0.00    +0.060 HD
BRANCH  41  43
ATOM     43  N   UNL     1       2.506   0.038   2.211  0.00  0.00    -0.298 N 
ATOM     44  C   UNL     1       3.290   1.190   1.860  0.00  0.00    +0.263 C 
ATOM     45  O   UNL     1       2.778   2.341   1.934  0.00  0.00    -0.269 OA
ATOM     46  H   UNL     1       2.958  -0.905   2.200  0.00  0.00    +0.150 HD
BRANCH  44  47
ATOM     47  C   UNL     1       4.685   1.033   1.396  0.00  0.00    +0.126 A 
ATOM     48  C   UNL     1       5.455   2.149   1.025  0.00  0.00    -0.031 A 
ATOM     49  C   UNL     1       6.760   1.968   0.561  0.00  0.00    -0.050 A 
ATOM     50  C   UNL     1       7.293   0.677   0.467  0.00  0.00    +0.000 A 
ATOM     51  C   UNL     1       8.596   0.459  -0.004  0.00  0.00    -0.053 A 
ATOM     52  C   UNL     1       9.096  -0.845  -0.094  0.00  0.00    -0.061 A 
ATOM     53  C   UNL     1       8.301  -1.931   0.285  0.00  0.00    -0.060 A 
ATOM     54  C   UNL     1       7.001  -1.721   0.757  0.00  0.00    -0.036 A 
ATOM     55  C   UNL     1       6.493  -0.421   0.851  0.00  0.00    +0.072 A 
ATOM     56  N   UNL     1       5.226  -0.213   1.299  0.00  0.00    -0.242 NA
ATOM     57  H   UNL     1       5.050   3.152   1.085  0.00  0.00    +0.064 HD
ATOM     58  H   UNL     1       7.347   2.832   0.273  0.00  0.00    +0.062 HD
ATOM     59  H   UNL     1       9.223   1.290  -0.303  0.00  0.00    +0.062 HD
ATOM     60  H   UNL     1      10.101  -1.013  -0.458  0.00  0.00    +0.062 HD
ATOM     61  H   UNL     1       8.692  -2.938   0.213  0.00  0.00    +0.062 HD
ATOM     62  H   UNL     1       6.391  -2.568   1.046  0.00  0.00    +0.064 HD
ENDBRANCH  44  47
ENDBRANCH  41  43
BRANCH  41  63
ATOM     63  C   UNL     1       0.592  -1.152   3.210  0.00  0.00    +0.051 C 
ATOM     64  H   UNL     1       0.778  -2.040   2.568  0.00  0.00    +0.038 HD
ATOM     65  H   UNL     1       1.182  -1.294   4.141  0.00  0.00    +0.038 HD
BRANCH  63  66
ATOM     66  C   UNL     1      -0.863  -1.085   3.574  0.00  0.00    +0.213 C 
ATOM     67  N   UNL     1      -1.836  -1.786   2.799  0.00  0.00    -0.329 N 
ATOM     68  O   UNL     1      -1.230  -0.394   4.562  0.00  0.00    -0.276 OA
ATOM     69  H   UNL     1      -1.556  -2.327   1.952  0.00  0.00    +0.145 HD
ATOM     70  H   UNL     1      -2.842  -1.768   3.076  0.00  0.00    +0.145 HD
ENDBRANCH  63  66
ENDBRANCH  41  63
ENDBRANCH  38  41
ENDBRANCH   1  37
BRANCH   1  71
ATOM     71  C   UNL     1       0.286   0.368  -2.112  0.00  0.00    -0.007 C 
ATOM     72  H   UNL     1      -0.306   0.401  -3.051  0.00  0.00    +0.033 HD
ATOM     73  H   UNL     1       0.353   1.419  -1.755  0.00  0.00    +0.033 HD
BRANCH  71  74
ATOM     74  C   UNL     1       1.671  -0.151  -2.418  0.00  0.00    -0.046 A 
ATOM     75  C   UNL     1       2.791   0.382  -1.756  0.00  0.00    -0.059 A 
ATOM     76  C   UNL     1       4.073  -0.095  -2.044  0.00  0.00    -0.062 A 
ATOM     77  C   UNL     1       4.246  -1.118  -2.980  0.00  0.00    -0.062 A 
ATOM     78  C   UNL     1       3.138  -1.658  -3.638  0.00  0.00    -0.062 A 
ATOM     79  C   UNL     1       1.855  -1.174  -3.364  0.00  0.00    -0.059 A 
ATOM     80  H   UNL     1       2.671   1.174  -1.028  0.00  0.00    +0.062 HD
ATOM     81  H   UNL     1       4.933   0.331  -1.548  0.00  0.00    +0.062 HD
ATOM     82  H   UNL     1       5.239  -1.489  -3.197  0.00  0.00    +0.062 HD
ATOM     83  H   UNL     1       3.274  -2.447  -4.366  0.00  0.00    +0.062 HD
ATOM     84  H   UNL     1       1.007  -1.596  -3.888  0.00  0.00    +0.062 HD
ENDBRANCH  71  74
ENDBRANCH   1  71
TORSDOF 18
