REMARK  Name = 
REMARK  11 active torsions:
REMARK  status: ('A' for Active; 'I' for Inactive)
REMARK    1  A    between atoms: O_1  and  C_2
REMARK    2  A    between atoms: C_3  and  O_4
REMARK    3  A    between atoms: C_5  and  C_6
REMARK    4  A    between atoms: C_6  and  C_7
REMARK    5  A    between atoms: N_13  and  C_14
REMARK    6  A    between atoms: C_14  and  C_15
REMARK    7  A    between atoms: N_22  and  C_23
REMARK    8  A    between atoms: N_25  and  C_26
REMARK    9  A    between atoms: C_26  and  C_27
REMARK   10  A    between atoms: C_33  and  C_34
REMARK   11  A    between atoms: C_34  and  C_35
REMARK                            x       y       z     vdW  Elec       q    Type
REMARK                         _______ _______ _______ _____ _____    ______ ____
ROOT
ATOM      1  C   UNL     1       1.064   1.228   1.482  0.00  0.00    +0.102 C 
ATOM      2  C   UNL     1      -0.252   0.784   2.171  0.00  0.00    +0.102 C 
ATOM      3  C   UNL     1      -0.716  -0.624   1.747  0.00  0.00    +0.058 C 
ATOM      4  N   UNL     1      -1.087  -0.646   0.315  0.00  0.00    -0.296 N 
ATOM      5  C   UNL     1      -0.013  -0.947  -0.600  0.00  0.00    +0.197 C 
ATOM      6  N   UNL     1      -0.006  -2.065  -1.272  0.00  0.00    -0.142 NA
ATOM      7  N   UNL     1       1.103  -0.028  -0.717  0.00  0.00    -0.296 N 
ATOM      8  C   UNL     1       0.974   1.315  -0.077  0.00  0.00    +0.058 C 
ATOM      9  H   UNL     1       1.257   2.244   1.896  0.00  0.00    +0.064 HD
ATOM     10  H   UNL     1      -0.043   0.750   3.267  0.00  0.00    +0.064 HD
ATOM     11  H   UNL     1       0.153  -1.302   1.898  0.00  0.00    +0.053 HD
ATOM     12  H   UNL     1      -0.028   1.703  -0.337  0.00  0.00    +0.053 HD
ENDROOT
BRANCH   4  13
ATOM     13  C   UNL     1      -2.481  -0.485  -0.163  0.00  0.00    +0.018 C 
ATOM     14  H   UNL     1      -3.100   0.035   0.595  0.00  0.00    +0.047 HD
ATOM     15  H   UNL     1      -2.923  -1.495  -0.278  0.00  0.00    +0.047 HD
BRANCH  13  16
ATOM     16  C   UNL     1      -2.607   0.288  -1.508  0.00  0.00    -0.025 C 
ATOM     17  C   UNL     1      -2.661   1.831  -1.299  0.00  0.00    -0.049 C 
ATOM     18  C   UNL     1      -4.081   2.396  -1.418  0.00  0.00    -0.053 C 
ATOM     19  C   UNL     1      -4.695   2.106  -2.800  0.00  0.00    -0.053 C 
ATOM     20  C   UNL     1      -4.249   0.755  -3.396  0.00  0.00    -0.053 C 
ATOM     21  C   UNL     1      -3.831  -0.234  -2.304  0.00  0.00    -0.049 C 
ATOM     22  H   UNL     1      -1.723   0.077  -2.146  0.00  0.00    +0.032 HD
ATOM     23  H   UNL     1      -2.023   2.326  -2.064  0.00  0.00    +0.027 HD
ATOM     24  H   UNL     1      -2.258   2.119  -0.311  0.00  0.00    +0.027 HD
ATOM     25  H   UNL     1      -4.061   3.494  -1.246  0.00  0.00    +0.027 HD
ATOM     26  H   UNL     1      -4.717   1.945  -0.625  0.00  0.00    +0.027 HD
ATOM     27  H   UNL     1      -5.803   2.120  -2.705  0.00  0.00    +0.027 HD
ATOM     28  H   UNL     1      -4.413   2.918  -3.506  0.00  0.00    +0.027 HD
ATOM     29  H   UNL     1      -3.390   0.917  -4.083  0.00  0.00    +0.027 HD
ATOM     30  H   UNL     1      -5.079   0.321  -3.994  0.00  0.00    +0.027 HD
ATOM     31  H   UNL     1      -4.697  -0.401  -1.624  0.00  0.00    +0.027 HD
ATOM     32  H   UNL     1      -3.579  -1.212  -2.771  0.00  0.00    +0.027 HD
ENDBRANCH  13  16
ENDBRANCH   4  13
BRANCH   3  33
ATOM     33  C   UNL     1      -1.818  -1.163   2.696  0.00  0.00    -0.006 C 
ATOM     34  H   UNL     1      -1.425  -1.162   3.736  0.00  0.00    +0.033 HD
ATOM     35  H   UNL     1      -2.696  -0.483   2.710  0.00  0.00    +0.033 HD
BRANCH  33  36
ATOM     36  C   UNL     1      -2.230  -2.580   2.373  0.00  0.00    -0.046 A 
ATOM     37  C   UNL     1      -3.556  -2.869   2.005  0.00  0.00    -0.059 A 
ATOM     38  C   UNL     1      -3.940  -4.184   1.724  0.00  0.00    -0.062 A 
ATOM     39  C   UNL     1      -3.010  -5.221   1.821  0.00  0.00    -0.062 A 
ATOM     40  C   UNL     1      -1.694  -4.947   2.204  0.00  0.00    -0.062 A 
ATOM     41  C   UNL     1      -1.306  -3.634   2.485  0.00  0.00    -0.059 A 
ATOM     42  H   UNL     1      -4.291  -2.078   1.929  0.00  0.00    +0.062 HD
ATOM     43  H   UNL     1      -4.960  -4.398   1.432  0.00  0.00    +0.062 HD
ATOM     44  H   UNL     1      -3.309  -6.239   1.603  0.00  0.00    +0.062 HD
ATOM     45  H   UNL     1      -0.976  -5.752   2.286  0.00  0.00    +0.062 HD
ATOM     46  H   UNL     1      -0.286  -3.442   2.794  0.00  0.00    +0.062 HD
ENDBRANCH  33  36
ENDBRANCH   3  33
BRANCH   7  47
ATOM     47  C   UNL     1       2.271  -0.422  -1.548  0.00  0.00    +0.018 C 
ATOM     48  H   UNL     1       1.980  -1.168  -2.318  0.00  0.00    +0.047 HD
ATOM     49  H   UNL     1       2.638   0.427  -2.154  0.00  0.00    +0.047 HD
BRANCH  47  50
ATOM     50  C   UNL     1       3.432  -0.988  -0.705  0.00  0.00    -0.025 C 
ATOM     51  C   UNL     1       3.021  -2.275   0.042  0.00  0.00    -0.049 C 
ATOM     52  C   UNL     1       4.193  -2.842   0.852  0.00  0.00    -0.053 C 
ATOM     53  C   UNL     1       5.405  -3.109  -0.047  0.00  0.00    -0.053 C 
ATOM     54  C   UNL     1       5.822  -1.839  -0.795  0.00  0.00    -0.053 C 
ATOM     55  C   UNL     1       4.652  -1.269  -1.607  0.00  0.00    -0.049 C 
ATOM     56  H   UNL     1       3.736  -0.219   0.034  0.00  0.00    +0.032 HD
ATOM     57  H   UNL     1       2.188  -2.062   0.744  0.00  0.00    +0.027 HD
ATOM     58  H   UNL     1       2.670  -3.042  -0.683  0.00  0.00    +0.027 HD
ATOM     59  H   UNL     1       4.473  -2.126   1.656  0.00  0.00    +0.027 HD
ATOM     60  H   UNL     1       3.878  -3.792   1.335  0.00  0.00    +0.027 HD
ATOM     61  H   UNL     1       6.254  -3.463   0.577  0.00  0.00    +0.027 HD
ATOM     62  H   UNL     1       5.159  -3.911  -0.778  0.00  0.00    +0.027 HD
ATOM     63  H   UNL     1       6.663  -2.077  -1.481  0.00  0.00    +0.027 HD
ATOM     64  H   UNL     1       6.179  -1.076  -0.068  0.00  0.00    +0.027 HD
ATOM     65  H   UNL     1       4.376  -1.990  -2.409  0.00  0.00    +0.027 HD
ATOM     66  H   UNL     1       4.983  -0.326  -2.094  0.00  0.00    +0.027 HD
ENDBRANCH  47  50
ENDBRANCH   7  47
BRANCH   8  67
ATOM     67  C   UNL     1       1.956   2.373  -0.652  0.00  0.00    -0.006 C 
ATOM     68  H   UNL     1       1.850   2.409  -1.758  0.00  0.00    +0.033 HD
ATOM     69  H   UNL     1       3.004   2.087  -0.418  0.00  0.00    +0.033 HD
BRANCH  67  70
ATOM     70  C   UNL     1       1.669   3.770  -0.154  0.00  0.00    -0.046 A 
ATOM     71  C   UNL     1       2.536   4.395   0.759  0.00  0.00    -0.059 A 
ATOM     72  C   UNL     1       2.254   5.679   1.233  0.00  0.00    -0.062 A 
ATOM     73  C   UNL     1       1.107   6.350   0.800  0.00  0.00    -0.062 A 
ATOM     74  C   UNL     1       0.241   5.738  -0.110  0.00  0.00    -0.062 A 
ATOM     75  C   UNL     1       0.520   4.454  -0.587  0.00  0.00    -0.059 A 
ATOM     76  H   UNL     1       3.425   3.884   1.111  0.00  0.00    +0.062 HD
ATOM     77  H   UNL     1       2.924   6.154   1.939  0.00  0.00    +0.062 HD
ATOM     78  H   UNL     1       0.890   7.344   1.169  0.00  0.00    +0.062 HD
ATOM     79  H   UNL     1      -0.646   6.259  -0.446  0.00  0.00    +0.062 HD
ATOM     80  H   UNL     1      -0.160   3.993  -1.293  0.00  0.00    +0.062 HD
ENDBRANCH  67  70
ENDBRANCH   8  67
BRANCH   6  81
ATOM     81  C   UNL     1      -0.988  -3.063  -1.183  0.00  0.00    +0.208 C 
ATOM     82  N   UNL     1      -1.795  -3.889  -1.115  0.00  0.00    -0.169 NA
ENDBRANCH   6  81
BRANCH   2  83
ATOM     83  O   UNL     1      -1.274   1.718   1.938  0.00  0.00    -0.387 OA
ATOM     84  H   UNL     1      -1.065   2.521   2.482  0.00  0.00    +0.210 HD
ENDBRANCH   2  83
BRANCH   1  85
ATOM     85  O   UNL     1       2.110   0.379   1.879  0.00  0.00    -0.387 OA
ATOM     86  H   UNL     1       2.933   0.932   1.925  0.00  0.00    +0.210 HD
ENDBRANCH   1  85
TORSDOF 11
