REMARK  Name = 
REMARK  15 active torsions:
REMARK  status: ('A' for Active; 'I' for Inactive)
REMARK    1  A    between atoms: C_1  and  O_2
REMARK    2  A    between atoms: O_2  and  C_3
REMARK    3  A    between atoms: C_6  and  S_7
REMARK    4  A    between atoms: S_7  and  N_10
REMARK    5  A    between atoms: N_10  and  C_11
REMARK    6  A    between atoms: N_10  and  O_31
REMARK    7  A    between atoms: C_11  and  C_12
REMARK    8  A    between atoms: C_12  and  O_13
REMARK    9  A    between atoms: C_12  and  C_14
REMARK   10  A    between atoms: C_14  and  C_15
REMARK   11  A    between atoms: C_14  and  N_22
REMARK   12  A    between atoms: C_15  and  C_16
REMARK   13  A    between atoms: C_23  and  O_25
REMARK   14  A    between atoms: O_25  and  C_26
REMARK   15  A    between atoms: O_31  and  C_32
REMARK                            x       y       z     vdW  Elec       q    Type
REMARK                         _______ _______ _______ _____ _____    ______ ____
ROOT
ATOM      1  C   UNL     1       0.574   0.213   0.097  0.00  0.00    +0.075 C 
ATOM      2  H   UNL     1       0.059   0.631  -0.791  0.00  0.00    +0.049 HD
ATOM      3  H   UNL     1       0.609   1.059   0.816  0.00  0.00    +0.049 HD
ENDROOT
BRANCH   1   4
ATOM      4  C   UNL     1      -0.249  -0.970   0.693  0.00  0.00    +0.091 C 
ATOM      5  H   UNL     1       0.082  -1.925   0.233  0.00  0.00    +0.063 HD
BRANCH   4   6
ATOM      6  O   UNL     1      -0.013  -1.063   2.075  0.00  0.00    -0.389 OA
ATOM      7  H   UNL     1      -0.355  -0.231   2.497  0.00  0.00    +0.210 HD
ENDBRANCH   4   6
BRANCH   4   8
ATOM      8  C   UNL     1      -1.770  -0.824   0.397  0.00  0.00    +0.057 C 
ATOM      9  H   UNL     1      -2.114   0.153   0.801  0.00  0.00    +0.053 HD
BRANCH   8  10
ATOM     10  N   UNL     1      -1.989  -0.870  -1.054  0.00  0.00    -0.275 N 
ATOM     11  C   UNL     1      -2.470   0.241  -1.819  0.00  0.00    +0.401 C 
ATOM     12  O   UNL     1      -2.775   1.326  -1.251  0.00  0.00    -0.226 OA
ATOM     13  H   UNL     1      -1.737  -1.744  -1.569  0.00  0.00    +0.152 HD
BRANCH  11  14
ATOM     14  O   UNL     1      -2.583   0.114  -3.207  0.00  0.00    -0.445 OA
BRANCH  14  15
ATOM     15  C   UNL     1      -2.931   1.201  -4.066  0.00  0.00    +0.130 C 
ATOM     16  C   UNL     1      -3.211   0.688  -5.445  0.00  0.00    +0.010 C 
ATOM     17  C   UNL     1      -1.859   0.764  -6.126  0.00  0.00    +0.051 C 
ATOM     18  O   UNL     1      -1.028   1.665  -5.430  0.00  0.00    -0.376 OA
ATOM     19  C   UNL     1      -1.734   2.108  -4.294  0.00  0.00    +0.085 C 
ATOM     20  H   UNL     1      -3.808   1.755  -3.661  0.00  0.00    +0.076 HD
ATOM     21  H   UNL     1      -3.931   1.362  -5.960  0.00  0.00    +0.032 HD
ATOM     22  H   UNL     1      -3.615  -0.349  -5.437  0.00  0.00    +0.032 HD
ATOM     23  H   UNL     1      -1.382  -0.240  -6.125  0.00  0.00    +0.056 HD
ATOM     24  H   UNL     1      -1.973   1.097  -7.180  0.00  0.00    +0.056 HD
ATOM     25  H   UNL     1      -2.082   3.148  -4.473  0.00  0.00    +0.060 HD
ATOM     26  H   UNL     1      -1.058   2.116  -3.413  0.00  0.00    +0.060 HD
ENDBRANCH  14  15
ENDBRANCH  11  14
ENDBRANCH   8  10
BRANCH   8  27
ATOM     27  C   UNL     1      -2.612  -1.949   1.044  0.00  0.00    -0.007 C 
ATOM     28  H   UNL     1      -2.161  -2.938   0.807  0.00  0.00    +0.033 HD
ATOM     29  H   UNL     1      -3.626  -1.950   0.585  0.00  0.00    +0.033 HD
BRANCH  27  30
ATOM     30  C   UNL     1      -2.786  -1.780   2.533  0.00  0.00    -0.046 A 
ATOM     31  C   UNL     1      -2.159  -2.663   3.430  0.00  0.00    -0.059 A 
ATOM     32  C   UNL     1      -2.311  -2.492   4.809  0.00  0.00    -0.062 A 
ATOM     33  C   UNL     1      -3.095  -1.446   5.304  0.00  0.00    -0.062 A 
ATOM     34  C   UNL     1      -3.730  -0.571   4.420  0.00  0.00    -0.062 A 
ATOM     35  C   UNL     1      -3.579  -0.736   3.039  0.00  0.00    -0.059 A 
ATOM     36  H   UNL     1      -1.543  -3.475   3.063  0.00  0.00    +0.062 HD
ATOM     37  H   UNL     1      -1.821  -3.171   5.495  0.00  0.00    +0.062 HD
ATOM     38  H   UNL     1      -3.212  -1.316   6.372  0.00  0.00    +0.062 HD
ATOM     39  H   UNL     1      -4.339   0.238   4.803  0.00  0.00    +0.062 HD
ATOM     40  H   UNL     1      -4.078  -0.051   2.365  0.00  0.00    +0.062 HD
ENDBRANCH  27  30
ENDBRANCH   8  27
ENDBRANCH   4   8
ENDBRANCH   1   4
BRANCH   1  41
ATOM     41  N   UNL     1       1.942  -0.142  -0.324  0.00  0.00    -0.052 NA
BRANCH  41  42
ATOM     42  S   UNL     1       2.960  -0.637   1.004  0.00  0.00    +0.083 S 
ATOM     43  O   UNL     1       2.582  -2.024   1.446  0.00  0.00    -0.151 OA
ATOM     44  O   UNL     1       4.389  -0.660   0.539  0.00  0.00    -0.151 OA
BRANCH  42  48
ATOM     45  C   UNL     1       2.608   2.329   4.471  0.00  0.00    +0.120 A 
ATOM     46  C   UNL     1       2.932   2.770   3.183  0.00  0.00    -0.018 A 
ATOM     47  C   UNL     1       3.046   1.860   2.128  0.00  0.00    -0.032 A 
ATOM     48  C   UNL     1       2.833   0.494   2.350  0.00  0.00    +0.108 A 
ATOM     49  C   UNL     1       2.518   0.044   3.639  0.00  0.00    -0.032 A 
ATOM     50  C   UNL     1       2.402   0.954   4.694  0.00  0.00    -0.018 A 
ATOM     51  H   UNL     1       3.095   3.824   2.998  0.00  0.00    +0.065 HD
ATOM     52  H   UNL     1       3.292   2.220   1.137  0.00  0.00    +0.064 HD
ATOM     53  H   UNL     1       2.354  -1.009   3.830  0.00  0.00    +0.064 HD
ATOM     54  H   UNL     1       2.152   0.579   5.677  0.00  0.00    +0.065 HD
BRANCH  45  55
ATOM     55  O   UNL     1       2.501   3.282   5.495  0.00  0.00    -0.495 OA
BRANCH  55  56
ATOM     56  C   UNL     1       2.173   2.975   6.846  0.00  0.00    +0.079 C 
ATOM     57  H   UNL     1       2.938   2.297   7.280  0.00  0.00    +0.066 HD
ATOM     58  H   UNL     1       2.155   3.914   7.437  0.00  0.00    +0.066 HD
ATOM     59  H   UNL     1       1.169   2.503   6.898  0.00  0.00    +0.066 HD
ENDBRANCH  55  56
ENDBRANCH  45  55
ENDBRANCH  42  48
ENDBRANCH  41  42
BRANCH  41  60
ATOM     60  O   UNL     1       1.889  -1.167  -1.219  0.00  0.00    -0.273 OA
BRANCH  60  61
ATOM     61  C   UNL     1       2.451  -0.691  -2.422  0.00  0.00    +0.082 C 
ATOM     62  C   UNL     1       2.942  -1.856  -3.263  0.00  0.00    -0.025 C 
ATOM     63  C   UNL     1       2.879  -1.366  -4.701  0.00  0.00    -0.051 C 
ATOM     64  C   UNL     1       1.813  -0.274  -4.737  0.00  0.00    -0.051 C 
ATOM     65  C   UNL     1       1.405  -0.003  -3.292  0.00  0.00    -0.025 C 
ATOM     66  H   UNL     1       3.316  -0.003  -2.248  0.00  0.00    +0.062 HD
ATOM     67  H   UNL     1       2.263  -2.729  -3.141  0.00  0.00    +0.029 HD
ATOM     68  H   UNL     1       3.975  -2.153  -2.979  0.00  0.00    +0.029 HD
ATOM     69  H   UNL     1       2.627  -2.199  -5.393  0.00  0.00    +0.027 HD
ATOM     70  H   UNL     1       3.864  -0.940  -4.993  0.00  0.00    +0.027 HD
ATOM     71  H   UNL     1       2.225   0.649  -5.201  0.00  0.00    +0.027 HD
ATOM     72  H   UNL     1       0.935  -0.609  -5.330  0.00  0.00    +0.027 HD
ATOM     73  H   UNL     1       1.368   1.087  -3.081  0.00  0.00    +0.029 HD
ATOM     74  H   UNL     1       0.401  -0.444  -3.105  0.00  0.00    +0.029 HD
ENDBRANCH  60  61
ENDBRANCH  41  60
ENDBRANCH   1  41
TORSDOF 15
