REMARK  Name = 
REMARK  17 active torsions:
REMARK  status: ('A' for Active; 'I' for Inactive)
REMARK    1  A    between atoms: C_1  and  C_2
REMARK    2  A    between atoms: C_2  and  C_3
REMARK    3  A    between atoms: C_2  and  C_4
REMARK    4  A    between atoms: C_4  and  C_5
REMARK    5  A    between atoms: C_5  and  C_6
REMARK    6  A    between atoms: C_6  and  C_7
REMARK    7  A    between atoms: C_10  and  O_11
REMARK    8  A    between atoms: C_17  and  S_18
REMARK    9  A    between atoms: S_18  and  C_19
REMARK   10  A    between atoms: C_21  and  C_22
REMARK   11  A    between atoms: C_23  and  N_24
REMARK   12  A    between atoms: C_25  and  C_27
REMARK   13  A    between atoms: C_34  and  C_35
REMARK   14  A    between atoms: C_35  and  C_36
REMARK   15  A    between atoms: C_35  and  C_37
REMARK   16  A    between atoms: C_35  and  C_38
REMARK   17  A    between atoms: C_39  and  O_40
REMARK                            x       y       z     vdW  Elec       q    Type
REMARK                         _______ _______ _______ _____ _____    ______ ____
ROOT
ATOM      1  S   UNL     1      -0.509  -0.906   3.137  0.00  0.00    -0.079 S 
ENDROOT
BRANCH   1   6
ATOM      2  C   UNL     1      -2.790   1.069  -0.467  0.00  0.00    +0.123 C 
ATOM      3  C   UNL     1      -3.385  -0.255   0.100  0.00  0.00    +0.051 C 
ATOM      4  C   UNL     1      -2.437  -0.920   1.052  0.00  0.00    +0.180 C 
ATOM      5  O   UNL     1      -2.495  -2.168   1.213  0.00  0.00    -0.291 OA
ATOM      6  C   UNL     1      -1.535  -0.103   1.881  0.00  0.00    +0.135 C 
ATOM      7  C   UNL     1      -1.533   1.225   1.705  0.00  0.00    +0.297 C 
ATOM      8  O   UNL     1      -2.248   1.807   0.644  0.00  0.00    -0.456 OA
ATOM      9  H   UNL     1      -4.308  -0.030   0.677  0.00  0.00    +0.038 HD
ATOM     10  H   UNL     1      -3.672  -0.967  -0.696  0.00  0.00    +0.038 HD
BRANCH   2  11
ATOM     11  C   UNL     1      -3.942   1.963  -1.020  0.00  0.00    -0.008 C 
ATOM     12  H   UNL     1      -4.634   2.224  -0.189  0.00  0.00    +0.031 HD
ATOM     13  H   UNL     1      -3.497   2.932  -1.335  0.00  0.00    +0.031 HD
BRANCH  11  14
ATOM     14  C   UNL     1      -4.751   1.414  -2.219  0.00  0.00    -0.024 C 
ATOM     15  H   UNL     1      -5.268   2.270  -2.705  0.00  0.00    +0.031 HD
ATOM     16  H   UNL     1      -4.074   0.998  -2.992  0.00  0.00    +0.031 HD
BRANCH  14  17
ATOM     17  C   UNL     1      -5.814   0.413  -1.831  0.00  0.00    -0.047 A 
ATOM     18  C   UNL     1      -6.870   0.788  -0.982  0.00  0.00    -0.055 A 
ATOM     19  C   UNL     1      -7.859  -0.136  -0.634  0.00  0.00    -0.020 A 
ATOM     20  C   UNL     1      -7.815  -1.440  -1.143  0.00  0.00    +0.117 A 
ATOM     21  C   UNL     1      -6.782  -1.812  -2.009  0.00  0.00    -0.020 A 
ATOM     22  C   UNL     1      -5.792  -0.889  -2.359  0.00  0.00    -0.055 A 
ATOM     23  H   UNL     1      -6.931   1.796  -0.592  0.00  0.00    +0.062 HD
ATOM     24  H   UNL     1      -8.662   0.163   0.028  0.00  0.00    +0.065 HD
ATOM     25  H   UNL     1      -6.747  -2.816  -2.412  0.00  0.00    +0.065 HD
ATOM     26  H   UNL     1      -5.005  -1.196  -3.037  0.00  0.00    +0.062 HD
BRANCH  20  27
ATOM     27  O   UNL     1      -8.794  -2.371  -0.801  0.00  0.00    -0.507 OA
ATOM     28  H   UNL     1      -9.556  -2.132  -0.177  0.00  0.00    +0.292 HD
ENDBRANCH  20  27
ENDBRANCH  14  17
ENDBRANCH  11  14
ENDBRANCH   2  11
BRANCH   2  29
ATOM     29  C   UNL     1      -1.666   0.876  -1.587  0.00  0.00    -0.006 C 
ATOM     30  H   UNL     1      -1.882   1.573  -2.426  0.00  0.00    +0.033 HD
BRANCH  29  31
ATOM     31  C   UNL     1      -0.248   1.275  -1.137  0.00  0.00    -0.059 C 
ATOM     32  H   UNL     1       0.460   1.217  -1.992  0.00  0.00    +0.023 HD
ATOM     33  H   UNL     1      -0.233   2.323  -0.770  0.00  0.00    +0.023 HD
ATOM     34  H   UNL     1       0.123   0.598  -0.344  0.00  0.00    +0.023 HD
ENDBRANCH  29  31
BRANCH  29  35
ATOM     35  C   UNL     1      -1.605  -0.524  -2.228  0.00  0.00    -0.059 C 
ATOM     36  H   UNL     1      -1.310  -1.292  -1.482  0.00  0.00    +0.023 HD
ATOM     37  H   UNL     1      -2.579  -0.798  -2.679  0.00  0.00    +0.023 HD
ATOM     38  H   UNL     1      -0.856  -0.538  -3.047  0.00  0.00    +0.023 HD
ENDBRANCH  29  35
ENDBRANCH   2  29
BRANCH   7  39
ATOM     39  O   UNL     1      -0.820   2.051   2.562  0.00  0.00    -0.479 OA
ATOM     40  H   UNL     1      -0.813   3.054   2.424  0.00  0.00    +0.295 HD
ENDBRANCH   7  39
ENDBRANCH   1   6
BRANCH   1  41
ATOM     41  C   UNL     1       0.982  -0.996   2.112  0.00  0.00    +0.017 A 
ATOM     42  C   UNL     1       0.885  -1.765   0.943  0.00  0.00    -0.043 A 
ATOM     43  C   UNL     1       1.879  -1.736  -0.036  0.00  0.00    -0.028 A 
ATOM     44  C   UNL     1       3.011  -0.929   0.159  0.00  0.00    +0.037 A 
ATOM     45  C   UNL     1       3.161  -0.234   1.369  0.00  0.00    -0.035 A 
ATOM     46  C   UNL     1       2.201  -0.309   2.412  0.00  0.00    -0.026 A 
ATOM     47  H   UNL     1      -0.003  -2.354   0.768  0.00  0.00    +0.063 HD
ATOM     48  H   UNL     1       4.046   0.373   1.468  0.00  0.00    +0.064 HD
BRANCH  44  49
ATOM     49  N   UNL     1       4.000  -0.792  -0.879  0.00  0.00    -0.281 N 
ATOM     50  C   UNL     1       5.413  -0.772  -0.616  0.00  0.00    +0.250 C 
ATOM     51  O   UNL     1       5.851  -1.228   0.475  0.00  0.00    -0.270 OA
ATOM     52  H   UNL     1       3.681  -0.801  -1.873  0.00  0.00    +0.155 HD
BRANCH  50  53
ATOM     53  C   UNL     1       6.368  -0.259  -1.628  0.00  0.00    +0.055 A 
ATOM     54  C   UNL     1       5.951   0.604  -2.656  0.00  0.00    -0.047 A 
ATOM     55  C   UNL     1       6.872   1.079  -3.591  0.00  0.00    -0.043 A 
ATOM     56  C   UNL     1       8.209   0.694  -3.492  0.00  0.00    +0.028 A 
ATOM     57  N   UNL     1       8.605  -0.132  -2.489  0.00  0.00    -0.263 NA
ATOM     58  C   UNL     1       7.729  -0.609  -1.564  0.00  0.00    +0.040 A 
ATOM     59  H   UNL     1       4.922   0.930  -2.729  0.00  0.00    +0.063 HD
ATOM     60  H   UNL     1       6.553   1.744  -4.383  0.00  0.00    +0.063 HD
ATOM     61  H   UNL     1       8.933   1.055  -4.209  0.00  0.00    +0.083 HD
ATOM     62  H   UNL     1       8.095  -1.267  -0.787  0.00  0.00    +0.084 HD
ENDBRANCH  50  53
ENDBRANCH  44  49
BRANCH  43  63
ATOM     63  C   UNL     1       1.686  -2.516  -1.309  0.00  0.00    -0.038 C 
ATOM     64  H   UNL     1       1.407  -1.822  -2.130  0.00  0.00    +0.028 HD
ATOM     65  H   UNL     1       0.884  -3.277  -1.203  0.00  0.00    +0.028 HD
ATOM     66  H   UNL     1       2.622  -3.050  -1.578  0.00  0.00    +0.028 HD
ENDBRANCH  43  63
BRANCH  46  67
ATOM     67  C   UNL     1       2.548   0.234   3.834  0.00  0.00    -0.012 C 
BRANCH  67  68
ATOM     68  C   UNL     1       1.655   1.431   4.215  0.00  0.00    -0.056 C 
ATOM     69  H   UNL     1       2.031   1.929   5.136  0.00  0.00    +0.024 HD
ATOM     70  H   UNL     1       0.619   1.126   4.442  0.00  0.00    +0.024 HD
ATOM     71  H   UNL     1       1.654   2.183   3.397  0.00  0.00    +0.024 HD
ENDBRANCH  67  68
BRANCH  67  72
ATOM     72  C   UNL     1       4.018   0.725   3.950  0.00  0.00    -0.056 C 
ATOM     73  H   UNL     1       4.731  -0.081   3.668  0.00  0.00    +0.024 HD
ATOM     74  H   UNL     1       4.194   1.619   3.313  0.00  0.00    +0.024 HD
ATOM     75  H   UNL     1       4.260   1.027   4.992  0.00  0.00    +0.024 HD
ENDBRANCH  67  72
BRANCH  67  76
ATOM     76  C   UNL     1       2.394  -0.894   4.883  0.00  0.00    -0.056 C 
ATOM     77  H   UNL     1       2.995  -1.781   4.585  0.00  0.00    +0.024 HD
ATOM     78  H   UNL     1       1.345  -1.216   5.014  0.00  0.00    +0.024 HD
ATOM     79  H   UNL     1       2.744  -0.558   5.883  0.00  0.00    +0.024 HD
ENDBRANCH  67  76
ENDBRANCH  46  67
ENDBRANCH   1  41
TORSDOF 17
