REMARK  Name = 
REMARK  9 active torsions:
REMARK  status: ('A' for Active; 'I' for Inactive)
REMARK    1  A    between atoms: C_1  and  C_2
REMARK    2  A    between atoms: C_2  and  C_3
REMARK    3  A    between atoms: C_3  and  C_4
REMARK    4  A    between atoms: C_3  and  C_22
REMARK    5  A    between atoms: C_8  and  N_9
REMARK    6  A    between atoms: N_9  and  S_10
REMARK    7  A    between atoms: S_10  and  C_13
REMARK    8  A    between atoms: C_16  and  C_17
REMARK    9  A    between atoms: C_23  and  O_24
REMARK                            x       y       z     vdW  Elec       q    Type
REMARK                         _______ _______ _______ _____ _____    ______ ____
ROOT
ATOM      1  C   UNL     1       0.528  -0.403  -0.739  0.00  0.00    +0.019 C 
ATOM      2  H   UNL     1       0.602  -0.674  -1.808  0.00  0.00    +0.040 HD
ENDROOT
BRANCH   1   3
ATOM      3  C   UNL     1      -0.933  -0.407  -0.276  0.00  0.00    +0.086 A 
ATOM      4  C   UNL     1      -2.018  -0.513  -1.187  0.00  0.00    +0.134 A 
ATOM      5  C   UNL     1      -3.335  -0.629  -0.698  0.00  0.00    +0.033 A 
ATOM      6  C   UNL     1      -4.489  -0.794  -1.673  0.00  0.00    -0.021 C 
ATOM      7  C   UNL     1      -5.108   0.549  -2.088  0.00  0.00    -0.049 C 
ATOM      8  C   UNL     1      -6.082   1.137  -1.050  0.00  0.00    -0.053 C 
ATOM      9  C   UNL     1      -5.375   1.775   0.163  0.00  0.00    -0.053 C 
ATOM     10  C   UNL     1      -5.463   0.931   1.448  0.00  0.00    -0.046 C 
ATOM     11  C   UNL     1      -4.913  -0.498   1.321  0.00  0.00    +0.006 C 
ATOM     12  C   UNL     1      -3.543  -0.519   0.696  0.00  0.00    +0.116 A 
ATOM     13  O   UNL     1      -2.508  -0.359   1.509  0.00  0.00    -0.427 OA
ATOM     14  C   UNL     1      -1.250  -0.306   1.097  0.00  0.00    +0.344 A 
ATOM     15  O   UNL     1      -0.346  -0.153   1.959  0.00  0.00    -0.245 OA
ATOM     16  H   UNL     1      -5.266  -1.484  -1.290  0.00  0.00    +0.032 HD
ATOM     17  H   UNL     1      -4.126  -1.303  -2.592  0.00  0.00    +0.032 HD
ATOM     18  H   UNL     1      -5.684   0.377  -3.023  0.00  0.00    +0.027 HD
ATOM     19  H   UNL     1      -4.312   1.284  -2.338  0.00  0.00    +0.027 HD
ATOM     20  H   UNL     1      -6.663   1.935  -1.563  0.00  0.00    +0.027 HD
ATOM     21  H   UNL     1      -6.825   0.371  -0.736  0.00  0.00    +0.027 HD
ATOM     22  H   UNL     1      -5.863   2.751   0.380  0.00  0.00    +0.027 HD
ATOM     23  H   UNL     1      -4.314   2.013  -0.066  0.00  0.00    +0.027 HD
ATOM     24  H   UNL     1      -6.523   0.876   1.777  0.00  0.00    +0.027 HD
ATOM     25  H   UNL     1      -4.899   1.459   2.248  0.00  0.00    +0.027 HD
ATOM     26  H   UNL     1      -5.636  -1.144   0.789  0.00  0.00    +0.034 HD
ATOM     27  H   UNL     1      -4.839  -0.930   2.342  0.00  0.00    +0.034 HD
BRANCH   4  28
ATOM     28  O   UNL     1      -1.836  -0.485  -2.575  0.00  0.00    -0.506 OA
ATOM     29  H   UNL     1      -0.993  -0.188  -3.043  0.00  0.00    +0.292 HD
ENDBRANCH   4  28
ENDBRANCH   1   3
BRANCH   1  30
ATOM     30  C   UNL     1       1.325  -1.504  -0.044  0.00  0.00    -0.038 A 
ATOM     31  C   UNL     1       1.143  -2.834  -0.460  0.00  0.00    -0.058 A 
ATOM     32  C   UNL     1       1.863  -3.871   0.136  0.00  0.00    -0.060 A 
ATOM     33  C   UNL     1       2.782  -3.595   1.149  0.00  0.00    -0.039 A 
ATOM     34  C   UNL     1       2.982  -2.279   1.589  0.00  0.00    +0.048 A 
ATOM     35  C   UNL     1       2.225  -1.243   1.009  0.00  0.00    -0.036 A 
ATOM     36  H   UNL     1       0.441  -3.068  -1.251  0.00  0.00    +0.062 HD
ATOM     37  H   UNL     1       1.716  -4.890  -0.196  0.00  0.00    +0.062 HD
ATOM     38  H   UNL     1       3.345  -4.408   1.588  0.00  0.00    +0.064 HD
ATOM     39  H   UNL     1       2.331  -0.238   1.382  0.00  0.00    +0.064 HD
BRANCH  34  40
ATOM     40  N   UNL     1       3.957  -2.021   2.616  0.00  0.00    -0.216 N 
ATOM     41  H   UNL     1       4.407  -2.829   3.101  0.00  0.00    +0.174 HD
BRANCH  40  42
ATOM     42  S   UNL     1       4.561  -0.438   2.999  0.00  0.00    +0.072 S 
ATOM     43  O   UNL     1       5.816  -0.568   3.815  0.00  0.00    -0.150 OA
ATOM     44  O   UNL     1       3.526   0.297   3.804  0.00  0.00    -0.150 OA
BRANCH  42  45
ATOM     45  C   UNL     1       4.938   0.443   1.519  0.00  0.00    +0.109 A 
ATOM     46  C   UNL     1       4.524   1.773   1.357  0.00  0.00    -0.034 A 
ATOM     47  C   UNL     1       4.769   2.444   0.155  0.00  0.00    -0.042 A 
ATOM     48  C   UNL     1       5.431   1.790  -0.891  0.00  0.00    +0.052 A 
ATOM     49  C   UNL     1       5.854   0.464  -0.728  0.00  0.00    -0.042 A 
ATOM     50  C   UNL     1       5.609  -0.206   0.474  0.00  0.00    -0.034 A 
ATOM     51  H   UNL     1       3.999   2.287   2.152  0.00  0.00    +0.064 HD
ATOM     52  H   UNL     1       4.435   3.468   0.039  0.00  0.00    +0.063 HD
ATOM     53  H   UNL     1       6.366  -0.052  -1.531  0.00  0.00    +0.063 HD
ATOM     54  H   UNL     1       5.927  -1.235   0.585  0.00  0.00    +0.064 HD
BRANCH  48  55
ATOM     55  C   UNL     1       5.672   2.476  -2.133  0.00  0.00    +0.099 C 
ATOM     56  N   UNL     1       5.865   3.028  -3.132  0.00  0.00    -0.191 NA
ENDBRANCH  48  55
ENDBRANCH  42  45
ENDBRANCH  40  42
ENDBRANCH  34  40
ENDBRANCH   1  30
BRANCH   1  57
ATOM     57  C   UNL     1       1.163   1.006  -0.623  0.00  0.00    -0.045 C 
ATOM     58  H   UNL     1       1.048   1.409   0.405  0.00  0.00    +0.027 HD
ATOM     59  H   UNL     1       2.250   0.938  -0.847  0.00  0.00    +0.027 HD
BRANCH  57  60
ATOM     60  C   UNL     1       0.547   2.005  -1.602  0.00  0.00    -0.064 C 
ATOM     61  H   UNL     1       0.686   1.658  -2.648  0.00  0.00    +0.023 HD
ATOM     62  H   UNL     1       1.048   2.989  -1.489  0.00  0.00    +0.023 HD
ATOM     63  H   UNL     1      -0.536   2.137  -1.397  0.00  0.00    +0.023 HD
ENDBRANCH  57  60
ENDBRANCH   1  57
TORSDOF 9
