REMARK  Name = 
REMARK  15 active torsions:
REMARK  status: ('A' for Active; 'I' for Inactive)
REMARK    1  A    between atoms: C_1  and  C_2
REMARK    2  A    between atoms: C_2  and  C_3
REMARK    3  A    between atoms: C_3  and  C_4
REMARK    4  A    between atoms: C_4  and  C_5
REMARK    5  A    between atoms: C_5  and  C_6
REMARK    6  A    between atoms: C_6  and  C_7
REMARK    7  A    between atoms: C_14  and  O_15
REMARK    8  A    between atoms: C_16  and  C_17
REMARK    9  A    between atoms: C_17  and  C_18
REMARK   10  A    between atoms: C_17  and  C_20
REMARK   11  A    between atoms: C_18  and  C_19
REMARK   12  A    between atoms: C_24  and  N_25
REMARK   13  A    between atoms: N_25  and  S_26
REMARK   14  A    between atoms: S_26  and  C_29
REMARK   15  A    between atoms: C_32  and  C_33
REMARK                            x       y       z     vdW  Elec       q    Type
REMARK                         _______ _______ _______ _____ _____    ______ ____
ROOT
ATOM      1  C   UNL     1      -1.541  -1.219  -0.937  0.00  0.00    +0.260 C 
ATOM      2  O   UNL     1      -1.007  -0.095  -1.646  0.00  0.00    -0.421 OA
ATOM      3  C   UNL     1      -0.589   1.074  -0.995  0.00  0.00    +0.293 C 
ATOM      4  C   UNL     1      -1.022   1.352   0.250  0.00  0.00    +0.123 C 
ATOM      5  C   UNL     1      -2.005   0.418   0.842  0.00  0.00    +0.346 C 
ATOM      6  O   UNL     1      -2.591   0.688   1.923  0.00  0.00    -0.245 OA
ATOM      7  O   UNL     1      -2.320  -0.764   0.172  0.00  0.00    -0.419 OA
ENDROOT
BRANCH   1   8
ATOM      8  C   UNL     1      -2.432  -2.046  -1.893  0.00  0.00    +0.029 C 
ATOM      9  H   UNL     1      -1.785  -2.565  -2.634  0.00  0.00    +0.034 HD
ATOM     10  H   UNL     1      -2.974  -2.830  -1.323  0.00  0.00    +0.034 HD
BRANCH   8  11
ATOM     11  C   UNL     1      -3.457  -1.207  -2.681  0.00  0.00    -0.021 C 
ATOM     12  H   UNL     1      -2.930  -0.448  -3.298  0.00  0.00    +0.032 HD
ATOM     13  H   UNL     1      -3.985  -1.876  -3.395  0.00  0.00    +0.032 HD
BRANCH  11  14
ATOM     14  C   UNL     1      -4.483  -0.556  -1.788  0.00  0.00    -0.047 A 
ATOM     15  C   UNL     1      -5.469  -1.335  -1.159  0.00  0.00    -0.059 A 
ATOM     16  C   UNL     1      -6.405  -0.737  -0.311  0.00  0.00    -0.062 A 
ATOM     17  C   UNL     1      -6.367   0.642  -0.088  0.00  0.00    -0.062 A 
ATOM     18  C   UNL     1      -5.393   1.425  -0.712  0.00  0.00    -0.062 A 
ATOM     19  C   UNL     1      -4.452   0.830  -1.558  0.00  0.00    -0.059 A 
ATOM     20  H   UNL     1      -5.508  -2.405  -1.323  0.00  0.00    +0.062 HD
ATOM     21  H   UNL     1      -7.161  -1.342   0.173  0.00  0.00    +0.062 HD
ATOM     22  H   UNL     1      -7.093   1.104   0.569  0.00  0.00    +0.062 HD
ATOM     23  H   UNL     1      -5.367   2.493  -0.539  0.00  0.00    +0.062 HD
ATOM     24  H   UNL     1      -3.696   1.448  -2.027  0.00  0.00    +0.062 HD
ENDBRANCH  11  14
ENDBRANCH   8  11
ENDBRANCH   1   8
BRANCH   1  25
ATOM     25  C   UNL     1      -0.351  -2.059  -0.412  0.00  0.00    +0.025 C 
ATOM     26  H   UNL     1       0.257  -2.414  -1.272  0.00  0.00    +0.034 HD
ATOM     27  H   UNL     1       0.300  -1.400   0.203  0.00  0.00    +0.034 HD
BRANCH  25  28
ATOM     28  C   UNL     1      -0.774  -3.267   0.441  0.00  0.00    -0.049 C 
ATOM     29  H   UNL     1      -1.301  -4.012  -0.192  0.00  0.00    +0.027 HD
ATOM     30  H   UNL     1      -1.460  -2.943   1.253  0.00  0.00    +0.027 HD
BRANCH  28  31
ATOM     31  C   UNL     1       0.439  -3.945   1.070  0.00  0.00    -0.065 C 
ATOM     32  H   UNL     1       0.113  -4.845   1.633  0.00  0.00    +0.023 HD
ATOM     33  H   UNL     1       0.945  -3.252   1.775  0.00  0.00    +0.023 HD
ATOM     34  H   UNL     1       1.159  -4.259   0.284  0.00  0.00    +0.023 HD
ENDBRANCH  28  31
ENDBRANCH  25  28
ENDBRANCH   1  25
BRANCH   4  35
ATOM     35  C   UNL     1      -0.531   2.559   1.043  0.00  0.00    +0.023 C 
ATOM     36  H   UNL     1      -0.976   2.524   2.062  0.00  0.00    +0.040 HD
BRANCH  35  37
ATOM     37  C   UNL     1       0.973   2.461   1.262  0.00  0.00    -0.038 A 
ATOM     38  C   UNL     1       1.904   3.222   0.527  0.00  0.00    -0.058 A 
ATOM     39  C   UNL     1       3.275   3.027   0.706  0.00  0.00    -0.060 A 
ATOM     40  C   UNL     1       3.738   2.065   1.605  0.00  0.00    -0.039 A 
ATOM     41  C   UNL     1       2.829   1.288   2.340  0.00  0.00    +0.048 A 
ATOM     42  C   UNL     1       1.454   1.502   2.173  0.00  0.00    -0.036 A 
ATOM     43  H   UNL     1       1.584   3.958  -0.197  0.00  0.00    +0.062 HD
ATOM     44  H   UNL     1       3.982   3.617   0.138  0.00  0.00    +0.062 HD
ATOM     45  H   UNL     1       4.804   1.932   1.723  0.00  0.00    +0.064 HD
ATOM     46  H   UNL     1       0.752   0.890   2.728  0.00  0.00    +0.064 HD
BRANCH  41  47
ATOM     47  N   UNL     1       3.279   0.267   3.243  0.00  0.00    -0.216 N 
ATOM     48  H   UNL     1       2.619  -0.096   3.968  0.00  0.00    +0.174 HD
BRANCH  47  49
ATOM     49  S   UNL     1       4.719  -0.656   2.955  0.00  0.00    +0.072 S 
ATOM     50  O   UNL     1       4.683  -1.908   3.785  0.00  0.00    -0.150 OA
ATOM     51  O   UNL     1       5.917   0.161   3.349  0.00  0.00    -0.150 OA
BRANCH  49  52
ATOM     52  C   UNL     1       4.797  -1.106   1.254  0.00  0.00    +0.109 A 
ATOM     53  C   UNL     1       3.637  -1.535   0.595  0.00  0.00    -0.034 A 
ATOM     54  C   UNL     1       3.681  -1.877  -0.759  0.00  0.00    -0.042 A 
ATOM     55  C   UNL     1       4.889  -1.794  -1.464  0.00  0.00    +0.052 A 
ATOM     56  C   UNL     1       6.051  -1.371  -0.807  0.00  0.00    -0.042 A 
ATOM     57  C   UNL     1       6.006  -1.028   0.548  0.00  0.00    -0.034 A 
ATOM     58  H   UNL     1       2.698  -1.597   1.129  0.00  0.00    +0.064 HD
ATOM     59  H   UNL     1       2.776  -2.203  -1.257  0.00  0.00    +0.063 HD
ATOM     60  H   UNL     1       6.991  -1.304  -1.342  0.00  0.00    +0.063 HD
ATOM     61  H   UNL     1       6.911  -0.701   1.043  0.00  0.00    +0.064 HD
BRANCH  55  62
ATOM     62  C   UNL     1       4.934  -2.144  -2.860  0.00  0.00    +0.099 C 
ATOM     63  N   UNL     1       4.971  -2.425  -3.982  0.00  0.00    -0.191 NA
ENDBRANCH  55  62
ENDBRANCH  49  52
ENDBRANCH  47  49
ENDBRANCH  41  47
ENDBRANCH  35  37
BRANCH  35  64
ATOM     64  C   UNL     1      -1.009   3.901   0.438  0.00  0.00    -0.045 C 
ATOM     65  H   UNL     1      -0.689   4.004  -0.619  0.00  0.00    +0.027 HD
ATOM     66  H   UNL     1      -0.561   4.740   1.014  0.00  0.00    +0.027 HD
BRANCH  64  67
ATOM     67  C   UNL     1      -2.530   4.048   0.493  0.00  0.00    -0.064 C 
ATOM     68  H   UNL     1      -2.821   5.045   0.102  0.00  0.00    +0.023 HD
ATOM     69  H   UNL     1      -3.014   3.271  -0.133  0.00  0.00    +0.023 HD
ATOM     70  H   UNL     1      -2.892   3.957   1.539  0.00  0.00    +0.023 HD
ENDBRANCH  64  67
ENDBRANCH  35  64
ENDBRANCH   4  35
BRANCH   3  71
ATOM     71  O   UNL     1       0.276   1.935  -1.664  0.00  0.00    -0.480 OA
ATOM     72  H   UNL     1       0.598   1.718  -2.598  0.00  0.00    +0.295 HD
ENDBRANCH   3  71
TORSDOF 15
