REMARK  Name = 
REMARK  7 active torsions:
REMARK  status: ('A' for Active; 'I' for Inactive)
REMARK    1  A    between atoms: O_1  and  C_2
REMARK    2  A    between atoms: C_14  and  C_15
REMARK    3  A    between atoms: C_15  and  C_16
REMARK    4  A    between atoms: C_15  and  C_19
REMARK    5  A    between atoms: C_23  and  N_24
REMARK    6  A    between atoms: N_24  and  S_25
REMARK    7  A    between atoms: S_25  and  C_28
REMARK                            x       y       z     vdW  Elec       q    Type
REMARK                         _______ _______ _______ _____ _____    ______ ____
ROOT
ATOM      1  C   UNL     1      -0.462   1.028  -0.421  0.00  0.00    +0.022 C 
ATOM      2  H   UNL     1      -0.302   2.079  -0.720  0.00  0.00    +0.040 HD
ENDROOT
BRANCH   1  15
ATOM      3  C   UNL     1      -2.727   1.909   0.474  0.00  0.00    +0.292 A 
ATOM      4  O   UNL     1      -3.823   1.725   1.199  0.00  0.00    -0.429 OA
ATOM      5  C   UNL     1      -4.102   0.611   1.863  0.00  0.00    +0.116 A 
ATOM      6  C   UNL     1      -5.427   0.552   2.577  0.00  0.00    +0.006 C 
ATOM      7  C   UNL     1      -6.555   0.070   1.653  0.00  0.00    -0.046 C 
ATOM      8  C   UNL     1      -6.241  -1.216   0.865  0.00  0.00    -0.053 C 
ATOM      9  C   UNL     1      -5.856  -2.414   1.758  0.00  0.00    -0.053 C 
ATOM     10  C   UNL     1      -4.353  -2.744   1.724  0.00  0.00    -0.049 C 
ATOM     11  C   UNL     1      -3.482  -1.785   2.550  0.00  0.00    -0.021 C 
ATOM     12  C   UNL     1      -3.204  -0.478   1.823  0.00  0.00    +0.038 A 
ATOM     13  C   UNL     1      -2.041  -0.340   1.044  0.00  0.00    +0.196 A 
ATOM     14  O   UNL     1      -1.246  -1.314   0.938  0.00  0.00    -0.287 OA
ATOM     15  C   UNL     1      -1.759   0.876   0.378  0.00  0.00    +0.087 A 
ATOM     16  H   UNL     1      -5.390  -0.062   3.495  0.00  0.00    +0.034 HD
ATOM     17  H   UNL     1      -5.683   1.576   2.925  0.00  0.00    +0.034 HD
ATOM     18  H   UNL     1      -7.470  -0.091   2.263  0.00  0.00    +0.027 HD
ATOM     19  H   UNL     1      -6.786   0.875   0.922  0.00  0.00    +0.027 HD
ATOM     20  H   UNL     1      -7.159  -1.483   0.297  0.00  0.00    +0.027 HD
ATOM     21  H   UNL     1      -5.461  -1.014   0.100  0.00  0.00    +0.027 HD
ATOM     22  H   UNL     1      -6.395  -3.309   1.376  0.00  0.00    +0.027 HD
ATOM     23  H   UNL     1      -6.201  -2.272   2.805  0.00  0.00    +0.027 HD
ATOM     24  H   UNL     1      -3.986  -2.797   0.675  0.00  0.00    +0.027 HD
ATOM     25  H   UNL     1      -4.227  -3.762   2.154  0.00  0.00    +0.027 HD
ATOM     26  H   UNL     1      -3.921  -1.619   3.553  0.00  0.00    +0.032 HD
ATOM     27  H   UNL     1      -2.521  -2.298   2.767  0.00  0.00    +0.032 HD
BRANCH   3  28
ATOM     28  O   UNL     1      -2.608   3.140  -0.176  0.00  0.00    -0.480 OA
ATOM     29  H   UNL     1      -1.894   3.384  -0.844  0.00  0.00    +0.295 HD
ENDBRANCH   3  28
ENDBRANCH   1  15
BRANCH   1  30
ATOM     30  C   UNL     1       0.749   0.721   0.454  0.00  0.00    -0.038 A 
ATOM     31  C   UNL     1       1.014   1.570   1.544  0.00  0.00    -0.058 A 
ATOM     32  C   UNL     1       2.079   1.310   2.407  0.00  0.00    -0.060 A 
ATOM     33  C   UNL     1       2.900   0.204   2.194  0.00  0.00    -0.039 A 
ATOM     34  C   UNL     1       2.676  -0.645   1.103  0.00  0.00    +0.048 A 
ATOM     35  C   UNL     1       1.597  -0.388   0.238  0.00  0.00    -0.036 A 
ATOM     36  H   UNL     1       0.383   2.429   1.733  0.00  0.00    +0.062 HD
ATOM     37  H   UNL     1       2.266   1.968   3.247  0.00  0.00    +0.062 HD
ATOM     38  H   UNL     1       3.724   0.017   2.871  0.00  0.00    +0.064 HD
ATOM     39  H   UNL     1       1.411  -1.067  -0.580  0.00  0.00    +0.064 HD
BRANCH  34  40
ATOM     40  N   UNL     1       3.543  -1.770   0.900  0.00  0.00    -0.216 N 
ATOM     41  H   UNL     1       4.119  -2.116   1.701  0.00  0.00    +0.174 HD
BRANCH  40  42
ATOM     42  S   UNL     1       3.956  -2.361  -0.678  0.00  0.00    +0.073 S 
ATOM     43  O   UNL     1       2.869  -3.288  -1.147  0.00  0.00    -0.150 OA
ATOM     44  O   UNL     1       5.246  -3.127  -0.604  0.00  0.00    -0.150 OA
BRANCH  42  45
ATOM     45  C   UNL     1       4.163  -1.008  -1.808  0.00  0.00    +0.116 A 
ATOM     46  C   UNL     1       3.443  -1.032  -3.013  0.00  0.00    -0.034 A 
ATOM     47  C   UNL     1       3.533   0.022  -3.921  0.00  0.00    -0.059 A 
ATOM     48  C   UNL     1       4.332   1.127  -3.639  0.00  0.00    -0.054 A 
ATOM     49  C   UNL     1       5.072   1.177  -2.451  0.00  0.00    -0.016 A 
ATOM     50  C   UNL     1       5.882   2.292  -2.179  0.00  0.00    -0.054 A 
ATOM     51  C   UNL     1       6.635   2.345  -1.007  0.00  0.00    -0.061 A 
ATOM     52  C   UNL     1       6.595   1.286  -0.101  0.00  0.00    -0.061 A 
ATOM     53  C   UNL     1       5.795   0.169  -0.356  0.00  0.00    -0.052 A 
ATOM     54  C   UNL     1       5.008   0.099  -1.525  0.00  0.00    +0.009 A 
ATOM     55  H   UNL     1       2.800  -1.867  -3.253  0.00  0.00    +0.064 HD
ATOM     56  H   UNL     1       2.968  -0.012  -4.843  0.00  0.00    +0.062 HD
ATOM     57  H   UNL     1       4.377   1.940  -4.354  0.00  0.00    +0.062 HD
ATOM     58  H   UNL     1       5.934   3.120  -2.876  0.00  0.00    +0.062 HD
ATOM     59  H   UNL     1       7.258   3.207  -0.803  0.00  0.00    +0.062 HD
ATOM     60  H   UNL     1       7.190   1.328   0.802  0.00  0.00    +0.062 HD
ATOM     61  H   UNL     1       5.815  -0.632   0.367  0.00  0.00    +0.062 HD
ENDBRANCH  42  45
ENDBRANCH  40  42
ENDBRANCH  34  40
ENDBRANCH   1  30
BRANCH   1  62
ATOM     62  C   UNL     1      -0.556   0.167  -1.703  0.00  0.00    -0.030 C 
ATOM     63  C   UNL     1       0.279   0.633  -2.886  0.00  0.00    -0.049 C 
ATOM     64  C   UNL     1      -1.226   0.845  -2.891  0.00  0.00    -0.049 C 
ATOM     65  H   UNL     1      -0.735  -0.928  -1.642  0.00  0.00    +0.031 HD
ATOM     66  H   UNL     1       0.614  -0.183  -3.559  0.00  0.00    +0.027 HD
ATOM     67  H   UNL     1       0.872   1.560  -2.731  0.00  0.00    +0.027 HD
ATOM     68  H   UNL     1      -1.526   1.905  -2.760  0.00  0.00    +0.027 HD
ATOM     69  H   UNL     1      -1.772   0.155  -3.569  0.00  0.00    +0.027 HD
ENDBRANCH   1  62
TORSDOF 7
