REMARK  Name = 
REMARK  11 active torsions:
REMARK  status: ('A' for Active; 'I' for Inactive)
REMARK    1  A    between atoms: O_1  and  C_2
REMARK    2  A    between atoms: C_3  and  O_4
REMARK    3  A    between atoms: C_5  and  C_6
REMARK    4  A    between atoms: C_6  and  C_7
REMARK    5  A    between atoms: N_13  and  C_14
REMARK    6  A    between atoms: C_14  and  C_15
REMARK    7  A    between atoms: N_22  and  C_23
REMARK    8  A    between atoms: N_25  and  C_26
REMARK    9  A    between atoms: C_26  and  C_27
REMARK   10  A    between atoms: C_33  and  C_34
REMARK   11  A    between atoms: C_34  and  C_35
REMARK                            x       y       z     vdW  Elec       q    Type
REMARK                         _______ _______ _______ _____ _____    ______ ____
ROOT
ATOM      1  C   UNL     1      -0.941   2.299  -0.271  0.00  0.00    +0.102 C 
ATOM      2  C   UNL     1       0.598   2.372  -0.406  0.00  0.00    +0.102 C 
ATOM      3  C   UNL     1       1.411   1.562   0.649  0.00  0.00    +0.058 C 
ATOM      4  N   UNL     1       1.168   0.104   0.558  0.00  0.00    -0.296 N 
ATOM      5  C   UNL     1      -0.029  -0.455   1.159  0.00  0.00    +0.197 C 
ATOM      6  N   UNL     1       0.033  -1.392   2.068  0.00  0.00    -0.142 NA
ATOM      7  N   UNL     1      -1.322   0.111   0.850  0.00  0.00    -0.296 N 
ATOM      8  C   UNL     1      -1.552   0.878  -0.387  0.00  0.00    +0.058 C 
ATOM      9  H   UNL     1      -1.229   2.696   0.731  0.00  0.00    +0.064 HD
ATOM     10  H   UNL     1       0.847   2.004  -1.420  0.00  0.00    +0.064 HD
ATOM     11  H   UNL     1       2.475   1.752   0.392  0.00  0.00    +0.053 HD
ATOM     12  H   UNL     1      -2.648   1.040  -0.484  0.00  0.00    +0.053 HD
ENDROOT
BRANCH   4  13
ATOM     13  C   UNL     1       2.258  -0.794   0.113  0.00  0.00    +0.018 C 
ATOM     14  H   UNL     1       1.894  -1.844   0.097  0.00  0.00    +0.047 HD
ATOM     15  H   UNL     1       3.068  -0.761   0.874  0.00  0.00    +0.047 HD
BRANCH  13  16
ATOM     16  C   UNL     1       2.817  -0.444  -1.298  0.00  0.00    -0.025 C 
ATOM     17  C   UNL     1       4.324  -0.120  -1.236  0.00  0.00    -0.049 C 
ATOM     18  C   UNL     1       4.870   0.238  -2.624  0.00  0.00    -0.053 C 
ATOM     19  C   UNL     1       4.604  -0.890  -3.629  0.00  0.00    -0.053 C 
ATOM     20  C   UNL     1       3.110  -1.230  -3.693  0.00  0.00    -0.053 C 
ATOM     21  C   UNL     1       2.570  -1.591  -2.303  0.00  0.00    -0.049 C 
ATOM     22  H   UNL     1       2.307   0.449  -1.698  0.00  0.00    +0.032 HD
ATOM     23  H   UNL     1       4.885  -0.993  -0.833  0.00  0.00    +0.027 HD
ATOM     24  H   UNL     1       4.496   0.741  -0.553  0.00  0.00    +0.027 HD
ATOM     25  H   UNL     1       5.965   0.415  -2.554  0.00  0.00    +0.027 HD
ATOM     26  H   UNL     1       4.394   1.177  -2.982  0.00  0.00    +0.027 HD
ATOM     27  H   UNL     1       4.951  -0.573  -4.636  0.00  0.00    +0.027 HD
ATOM     28  H   UNL     1       5.181  -1.794  -3.336  0.00  0.00    +0.027 HD
ATOM     29  H   UNL     1       2.545  -0.364  -4.101  0.00  0.00    +0.027 HD
ATOM     30  H   UNL     1       2.959  -2.091  -4.379  0.00  0.00    +0.027 HD
ATOM     31  H   UNL     1       1.480  -1.793  -2.385  0.00  0.00    +0.027 HD
ATOM     32  H   UNL     1       3.065  -2.522  -1.947  0.00  0.00    +0.027 HD
ENDBRANCH  13  16
ENDBRANCH   4  13
BRANCH   3  33
ATOM     33  C   UNL     1       1.219   2.103   2.091  0.00  0.00    -0.006 C 
ATOM     34  H   UNL     1       0.159   1.991   2.401  0.00  0.00    +0.033 HD
ATOM     35  H   UNL     1       1.440   3.192   2.113  0.00  0.00    +0.033 HD
BRANCH  33  36
ATOM     36  C   UNL     1       2.125   1.434   3.097  0.00  0.00    -0.046 A 
ATOM     37  C   UNL     1       1.579   0.775   4.213  0.00  0.00    -0.059 A 
ATOM     38  C   UNL     1       2.415   0.176   5.159  0.00  0.00    -0.062 A 
ATOM     39  C   UNL     1       3.802   0.238   5.007  0.00  0.00    -0.062 A 
ATOM     40  C   UNL     1       4.356   0.909   3.915  0.00  0.00    -0.062 A 
ATOM     41  C   UNL     1       3.523   1.515   2.968  0.00  0.00    -0.059 A 
ATOM     42  H   UNL     1       0.505   0.715   4.346  0.00  0.00    +0.062 HD
ATOM     43  H   UNL     1       1.987  -0.339   6.010  0.00  0.00    +0.062 HD
ATOM     44  H   UNL     1       4.448  -0.228   5.740  0.00  0.00    +0.062 HD
ATOM     45  H   UNL     1       5.431   0.967   3.804  0.00  0.00    +0.062 HD
ATOM     46  H   UNL     1       3.972   2.049   2.141  0.00  0.00    +0.062 HD
ENDBRANCH  33  36
ENDBRANCH   3  33
BRANCH   7  47
ATOM     47  C   UNL     1      -2.399   0.042   1.857  0.00  0.00    +0.018 C 
ATOM     48  H   UNL     1      -1.956   0.178   2.868  0.00  0.00    +0.047 HD
ATOM     49  H   UNL     1      -3.111   0.888   1.733  0.00  0.00    +0.047 HD
BRANCH  47  50
ATOM     50  C   UNL     1      -3.166  -1.298   1.788  0.00  0.00    -0.025 C 
ATOM     51  C   UNL     1      -4.052  -1.476   3.036  0.00  0.00    -0.049 C 
ATOM     52  C   UNL     1      -4.726  -2.864   3.067  0.00  0.00    -0.053 C 
ATOM     53  C   UNL     1      -4.977  -3.457   1.667  0.00  0.00    -0.053 C 
ATOM     54  C   UNL     1      -5.226  -2.360   0.629  0.00  0.00    -0.053 C 
ATOM     55  C   UNL     1      -4.018  -1.411   0.495  0.00  0.00    -0.049 C 
ATOM     56  H   UNL     1      -2.427  -2.129   1.789  0.00  0.00    +0.032 HD
ATOM     57  H   UNL     1      -3.445  -1.354   3.960  0.00  0.00    +0.027 HD
ATOM     58  H   UNL     1      -4.835  -0.686   3.042  0.00  0.00    +0.027 HD
ATOM     59  H   UNL     1      -5.692  -2.778   3.609  0.00  0.00    +0.027 HD
ATOM     60  H   UNL     1      -4.088  -3.571   3.641  0.00  0.00    +0.027 HD
ATOM     61  H   UNL     1      -4.094  -4.057   1.352  0.00  0.00    +0.027 HD
ATOM     62  H   UNL     1      -5.852  -4.141   1.704  0.00  0.00    +0.027 HD
ATOM     63  H   UNL     1      -5.447  -2.823  -0.357  0.00  0.00    +0.027 HD
ATOM     64  H   UNL     1      -6.124  -1.777   0.933  0.00  0.00    +0.027 HD
ATOM     65  H   UNL     1      -4.405  -0.414   0.192  0.00  0.00    +0.027 HD
ATOM     66  H   UNL     1      -3.367  -1.778  -0.326  0.00  0.00    +0.027 HD
ENDBRANCH  47  50
ENDBRANCH   7  47
BRANCH   8  67
ATOM     67  C   UNL     1      -1.143   0.059  -1.640  0.00  0.00    -0.006 C 
ATOM     68  H   UNL     1      -1.553  -0.968  -1.550  0.00  0.00    +0.033 HD
ATOM     69  H   UNL     1      -0.048  -0.068  -1.694  0.00  0.00    +0.033 HD
BRANCH  67  70
ATOM     70  C   UNL     1      -1.660   0.656  -2.924  0.00  0.00    -0.046 A 
ATOM     71  C   UNL     1      -0.780   1.263  -3.837  0.00  0.00    -0.059 A 
ATOM     72  C   UNL     1      -1.269   1.822  -5.021  0.00  0.00    -0.062 A 
ATOM     73  C   UNL     1      -2.636   1.775  -5.306  0.00  0.00    -0.062 A 
ATOM     74  C   UNL     1      -3.517   1.165  -4.409  0.00  0.00    -0.062 A 
ATOM     75  C   UNL     1      -3.033   0.605  -3.224  0.00  0.00    -0.059 A 
ATOM     76  H   UNL     1       0.283   1.301  -3.637  0.00  0.00    +0.062 HD
ATOM     77  H   UNL     1      -0.587   2.290  -5.719  0.00  0.00    +0.062 HD
ATOM     78  H   UNL     1      -3.012   2.208  -6.224  0.00  0.00    +0.062 HD
ATOM     79  H   UNL     1      -4.575   1.126  -4.633  0.00  0.00    +0.062 HD
ATOM     80  H   UNL     1      -3.726   0.132  -2.539  0.00  0.00    +0.062 HD
ENDBRANCH  67  70
ENDBRANCH   8  67
BRANCH   6  81
ATOM     81  C   UNL     1       1.195  -1.984   2.588  0.00  0.00    +0.208 C 
ATOM     82  N   UNL     1       2.150  -2.474   3.020  0.00  0.00    -0.169 NA
ENDBRANCH   6  81
BRANCH   2  83
ATOM     83  O   UNL     1       0.984   3.723  -0.345  0.00  0.00    -0.387 OA
ATOM     84  H   UNL     1       1.883   3.792  -0.763  0.00  0.00    +0.210 HD
ENDBRANCH   2  83
BRANCH   1  85
ATOM     85  O   UNL     1      -1.527   3.115  -1.256  0.00  0.00    -0.387 OA
ATOM     86  H   UNL     1      -1.537   4.045  -0.907  0.00  0.00    +0.210 HD
ENDBRANCH   1  85
TORSDOF 11
