REMARK  Name = 
REMARK  14 active torsions:
REMARK  status: ('A' for Active; 'I' for Inactive)
REMARK    1  A    between atoms: C_1  and  C_2
REMARK    2  A    between atoms: C_2  and  C_3
REMARK    3  A    between atoms: C_2  and  C_4
REMARK    4  A    between atoms: C_4  and  C_5
REMARK    5  A    between atoms: C_5  and  N_6
REMARK    6  A    between atoms: N_6  and  C_7
REMARK    7  A    between atoms: N_6  and  S_33
REMARK    8  A    between atoms: C_7  and  C_8
REMARK    9  A    between atoms: C_8  and  O_9
REMARK   10  A    between atoms: C_8  and  C_10
REMARK   11  A    between atoms: C_24  and  C_25
REMARK   12  A    between atoms: C_25  and  C_26
REMARK   13  A    between atoms: C_25  and  C_27
REMARK   14  A    between atoms: S_33  and  C_36
REMARK                            x       y       z     vdW  Elec       q    Type
REMARK                         _______ _______ _______ _____ _____    ______ ____
ROOT
ATOM      1  C   UNL     1      -0.121  -1.368  -1.243  0.00  0.00    +0.054 C 
ATOM      2  C   UNL     1      -0.393  -2.436  -0.159  0.00  0.00    -0.007 C 
ATOM      3  C   UNL     1       0.883  -2.869   0.524  0.00  0.00    -0.045 A 
ATOM      4  C   UNL     1       1.870  -3.565  -0.192  0.00  0.00    -0.055 A 
ATOM      5  C   UNL     1       3.095  -3.871   0.409  0.00  0.00    -0.020 A 
ATOM      6  C   UNL     1       3.348  -3.488   1.737  0.00  0.00    +0.121 A 
ATOM      7  O   UNL     1       4.589  -3.712   2.349  0.00  0.00    -0.492 OA
ATOM      8  C   UNL     1       5.847  -3.488   1.704  0.00  0.00    +0.090 C 
ATOM      9  C   UNL     1       6.476  -2.159   2.160  0.00  0.00    -0.018 C 
ATOM     10  C   UNL     1       5.515  -0.958   2.125  0.00  0.00    -0.042 C 
ATOM     11  C   UNL     1       5.069  -0.584   0.700  0.00  0.00    +0.024 C 
ATOM     12  C   UNL     1       3.946   0.419   0.686  0.00  0.00    +0.214 C 
ATOM     13  O   UNL     1       3.184   0.536   1.685  0.00  0.00    -0.276 OA
ATOM     14  N   UNL     1       3.676   1.165  -0.509  0.00  0.00    -0.304 N 
ATOM     15  C   UNL     1       2.328   1.655  -0.813  0.00  0.00    +0.102 C 
ATOM     16  C   UNL     1       1.560   0.532  -1.460  0.00  0.00    +0.234 C 
ATOM     17  O   UNL     1       1.786   0.231  -2.665  0.00  0.00    -0.274 OA
ATOM     18  N   UNL     1       0.640  -0.245  -0.682  0.00  0.00    -0.308 N 
ATOM     19  C   UNL     1       2.337  -2.859   2.472  0.00  0.00    -0.020 A 
ATOM     20  C   UNL     1       1.120  -2.533   1.867  0.00  0.00    -0.055 A 
ATOM     21  H   UNL     1       0.492  -1.868  -2.026  0.00  0.00    +0.053 HD
ATOM     22  H   UNL     1      -1.109  -2.044   0.593  0.00  0.00    +0.033 HD
ATOM     23  H   UNL     1      -0.865  -3.327  -0.627  0.00  0.00    +0.033 HD
ATOM     24  H   UNL     1       1.700  -3.853  -1.221  0.00  0.00    +0.062 HD
ATOM     25  H   UNL     1       3.839  -4.407  -0.165  0.00  0.00    +0.065 HD
ATOM     26  H   UNL     1       6.535  -4.313   1.984  0.00  0.00    +0.070 HD
ATOM     27  H   UNL     1       5.761  -3.505   0.599  0.00  0.00    +0.070 HD
ATOM     28  H   UNL     1       7.367  -1.942   1.533  0.00  0.00    +0.030 HD
ATOM     29  H   UNL     1       6.831  -2.284   3.207  0.00  0.00    +0.030 HD
ATOM     30  H   UNL     1       4.641  -1.178   2.772  0.00  0.00    +0.027 HD
ATOM     31  H   UNL     1       6.033  -0.081   2.571  0.00  0.00    +0.027 HD
ATOM     32  H   UNL     1       4.712  -1.479   0.154  0.00  0.00    +0.036 HD
ATOM     33  H   UNL     1       5.939  -0.172   0.145  0.00  0.00    +0.036 HD
ATOM     34  H   UNL     1       4.367   1.106  -1.292  0.00  0.00    +0.149 HD
ATOM     35  H   UNL     1       1.817   1.945   0.132  0.00  0.00    +0.060 HD
ATOM     36  H   UNL     1       0.467   0.032   0.312  0.00  0.00    +0.149 HD
ATOM     37  H   UNL     1       2.514  -2.577   3.502  0.00  0.00    +0.065 HD
ATOM     38  H   UNL     1       0.372  -2.000   2.441  0.00  0.00    +0.062 HD
ENDROOT
BRANCH  15  39
ATOM     39  C   UNL     1       2.382   2.921  -1.711  0.00  0.00    -0.020 C 
ATOM     40  H   UNL     1       2.870   2.665  -2.678  0.00  0.00    +0.032 HD
BRANCH  39  41
ATOM     41  C   UNL     1       0.969   3.452  -2.010  0.00  0.00    -0.061 C 
ATOM     42  H   UNL     1       1.026   4.367  -2.638  0.00  0.00    +0.023 HD
ATOM     43  H   UNL     1       0.375   2.699  -2.570  0.00  0.00    +0.023 HD
ATOM     44  H   UNL     1       0.434   3.698  -1.068  0.00  0.00    +0.023 HD
ENDBRANCH  39  41
BRANCH  39  45
ATOM     45  C   UNL     1       3.213   4.030  -1.046  0.00  0.00    -0.061 C 
ATOM     46  H   UNL     1       3.235   4.934  -1.693  0.00  0.00    +0.023 HD
ATOM     47  H   UNL     1       2.781   4.306  -0.061  0.00  0.00    +0.023 HD
ATOM     48  H   UNL     1       4.262   3.699  -0.898  0.00  0.00    +0.023 HD
ENDBRANCH  39  45
ENDBRANCH  15  39
BRANCH   1  49
ATOM     49  C   UNL     1      -1.431  -0.871  -1.914  0.00  0.00    +0.088 C 
ATOM     50  H   UNL     1      -2.102  -1.746  -2.076  0.00  0.00    +0.063 HD
BRANCH  49  51
ATOM     51  C   UNL     1      -2.181   0.166  -1.058  0.00  0.00    +0.048 C 
ATOM     52  H   UNL     1      -1.544   1.077  -0.996  0.00  0.00    +0.047 HD
ATOM     53  H   UNL     1      -2.309  -0.191  -0.018  0.00  0.00    +0.047 HD
BRANCH  51  54
ATOM     54  N   UNL     1      -3.481   0.502  -1.672  0.00  0.00    -0.174 NA
BRANCH  54  55
ATOM     55  S   UNL     1      -4.755  -0.657  -1.319  0.00  0.00    +0.061 S 
ATOM     56  O   UNL     1      -6.074   0.039  -1.126  0.00  0.00    -0.153 OA
ATOM     57  O   UNL     1      -4.894  -1.569  -2.506  0.00  0.00    -0.153 OA
BRANCH  55  58
ATOM     58  C   UNL     1      -4.426  -1.644   0.112  0.00  0.00    +0.105 A 
ATOM     59  C   UNL     1      -4.680  -1.137   1.395  0.00  0.00    -0.035 A 
ATOM     60  C   UNL     1      -4.387  -1.905   2.526  0.00  0.00    -0.060 A 
ATOM     61  C   UNL     1      -3.844  -3.184   2.383  0.00  0.00    -0.062 A 
ATOM     62  C   UNL     1      -3.600  -3.700   1.108  0.00  0.00    -0.060 A 
ATOM     63  C   UNL     1      -3.891  -2.935  -0.025  0.00  0.00    -0.035 A 
ATOM     64  H   UNL     1      -5.101  -0.150   1.523  0.00  0.00    +0.064 HD
ATOM     65  H   UNL     1      -4.580  -1.507   3.514  0.00  0.00    +0.062 HD
ATOM     66  H   UNL     1      -3.615  -3.776   3.260  0.00  0.00    +0.062 HD
ATOM     67  H   UNL     1      -3.178  -4.691   0.997  0.00  0.00    +0.062 HD
ATOM     68  H   UNL     1      -3.688  -3.346  -1.005  0.00  0.00    +0.064 HD
ENDBRANCH  55  58
ENDBRANCH  54  55
BRANCH  54  69
ATOM     69  C   UNL     1      -3.885   1.908  -1.465  0.00  0.00    +0.021 C 
ATOM     70  H   UNL     1      -3.110   2.558  -1.920  0.00  0.00    +0.044 HD
ATOM     71  H   UNL     1      -4.815   2.110  -2.037  0.00  0.00    +0.044 HD
BRANCH  69  72
ATOM     72  C   UNL     1      -4.101   2.285   0.021  0.00  0.00    -0.036 C 
ATOM     73  H   UNL     1      -5.081   1.884   0.352  0.00  0.00    +0.028 HD
ATOM     74  H   UNL     1      -3.330   1.815   0.666  0.00  0.00    +0.028 HD
BRANCH  72  75
ATOM     75  C   UNL     1      -4.095   3.807   0.298  0.00  0.00    -0.046 C 
ATOM     76  H   UNL     1      -4.381   3.939   1.365  0.00  0.00    +0.030 HD
BRANCH  75  77
ATOM     77  C   UNL     1      -5.134   4.559  -0.544  0.00  0.00    -0.063 C 
ATOM     78  H   UNL     1      -5.201   5.615  -0.206  0.00  0.00    +0.023 HD
ATOM     79  H   UNL     1      -6.135   4.092  -0.424  0.00  0.00    +0.023 HD
ATOM     80  H   UNL     1      -4.857   4.553  -1.619  0.00  0.00    +0.023 HD
ENDBRANCH  75  77
BRANCH  75  81
ATOM     81  C   UNL     1      -2.698   4.425   0.132  0.00  0.00    -0.063 C 
ATOM     82  H   UNL     1      -1.946   3.844   0.707  0.00  0.00    +0.023 HD
ATOM     83  H   UNL     1      -2.700   5.465   0.522  0.00  0.00    +0.023 HD
ATOM     84  H   UNL     1      -2.389   4.459  -0.933  0.00  0.00    +0.023 HD
ENDBRANCH  75  81
ENDBRANCH  72  75
ENDBRANCH  69  72
ENDBRANCH  54  69
ENDBRANCH  51  54
ENDBRANCH  49  51
BRANCH  49  85
ATOM     85  O   UNL     1      -1.135  -0.289  -3.158  0.00  0.00    -0.389 OA
ATOM     86  H   UNL     1      -0.961  -1.032  -3.793  0.00  0.00    +0.210 HD
ENDBRANCH  49  85
ENDBRANCH   1  49
TORSDOF 14
