REMARK  Name = 
REMARK  18 active torsions:
REMARK  status: ('A' for Active; 'I' for Inactive)
REMARK    1  A    between atoms: C_1  and  C_2
REMARK    2  A    between atoms: C_2  and  C_3
REMARK    3  A    between atoms: C_2  and  C_4
REMARK    4  A    between atoms: C_4  and  N_5
REMARK    5  A    between atoms: C_4  and  C_41
REMARK    6  A    between atoms: C_6  and  C_8
REMARK    7  A    between atoms: C_8  and  C_9
REMARK    8  A    between atoms: C_11  and  C_12
REMARK    9  A    between atoms: C_12  and  C_13
REMARK   10  A    between atoms: C_12  and  N_20
REMARK   11  A    between atoms: C_13  and  C_14
REMARK   12  A    between atoms: C_21  and  C_23
REMARK   13  A    between atoms: C_23  and  C_24
REMARK   14  A    between atoms: C_23  and  N_28
REMARK   15  A    between atoms: C_24  and  C_25
REMARK   16  A    between atoms: C_29  and  C_31
REMARK   17  A    between atoms: C_41  and  C_42
REMARK   18  A    between atoms: C_41  and  C_43
REMARK                            x       y       z     vdW  Elec       q    Type
REMARK                         _______ _______ _______ _____ _____    ______ ____
ROOT
ATOM      1  C   UNL     1       0.297  -3.225   0.671  0.00  0.00    +0.056 C 
ATOM      2  H   UNL     1       0.050  -4.273   0.395  0.00  0.00    +0.053 HD
ENDROOT
BRANCH   1   5
ATOM      3  C   UNL     1       2.640  -2.003   1.182  0.00  0.00    +0.095 C 
ATOM      4  O   UNL     1       2.340  -2.110  -0.191  0.00  0.00    -0.366 OA
ATOM      5  C   UNL     1       1.850  -3.150   0.628  0.00  0.00    +0.104 C 
ATOM      6  H   UNL     1       3.723  -2.179   1.358  0.00  0.00    +0.063 HD
ATOM      7  H   UNL     1       2.413  -4.091   0.459  0.00  0.00    +0.064 HD
BRANCH   3   8
ATOM      8  C   UNL     1       2.002  -0.742   1.782  0.00  0.00    +0.053 C 
ATOM      9  H   UNL     1       2.169  -0.757   2.880  0.00  0.00    +0.038 HD
ATOM     10  H   UNL     1       0.911  -0.681   1.629  0.00  0.00    +0.038 HD
BRANCH   8  12
ATOM     11  N   UNL     1       2.013   1.219   0.164  0.00  0.00    -0.312 N 
ATOM     12  C   UNL     1       2.658   0.478   1.211  0.00  0.00    +0.216 C 
ATOM     13  O   UNL     1       3.796   0.820   1.631  0.00  0.00    -0.276 OA
ATOM     14  H   UNL     1       1.016   0.998  -0.058  0.00  0.00    +0.149 HD
BRANCH  11  15
ATOM     15  C   UNL     1       2.704   2.227  -0.654  0.00  0.00    +0.028 C 
ATOM     16  H   UNL     1       3.752   2.323  -0.295  0.00  0.00    +0.050 HD
BRANCH  15  17
ATOM     17  C   UNL     1       2.764   1.694  -2.124  0.00  0.00    -0.028 C 
ATOM     18  H   UNL     1       2.941   0.597  -2.053  0.00  0.00    +0.031 HD
BRANCH  17  19
ATOM     19  C   UNL     1       3.963   2.228  -2.926  0.00  0.00    -0.061 C 
ATOM     20  H   UNL     1       4.094   1.620  -3.847  0.00  0.00    +0.023 HD
ATOM     21  H   UNL     1       3.823   3.278  -3.243  0.00  0.00    +0.023 HD
ATOM     22  H   UNL     1       4.899   2.149  -2.334  0.00  0.00    +0.023 HD
ENDBRANCH  17  19
BRANCH  17  23
ATOM     23  C   UNL     1       1.454   1.867  -2.908  0.00  0.00    -0.061 C 
ATOM     24  H   UNL     1       1.255   2.933  -3.140  0.00  0.00    +0.023 HD
ATOM     25  H   UNL     1       1.511   1.310  -3.867  0.00  0.00    +0.023 HD
ATOM     26  H   UNL     1       0.599   1.462  -2.332  0.00  0.00    +0.023 HD
ENDBRANCH  17  23
ENDBRANCH  15  17
BRANCH  15  27
ATOM     27  C   UNL     1       2.021   3.616  -0.441  0.00  0.00    -0.028 C 
ATOM     28  H   UNL     1       0.970   3.563  -0.789  0.00  0.00    +0.031 HD
BRANCH  27  29
ATOM     29  C   UNL     1       2.717   4.755  -1.203  0.00  0.00    -0.061 C 
ATOM     30  H   UNL     1       2.459   4.723  -2.279  0.00  0.00    +0.023 HD
ATOM     31  H   UNL     1       2.369   5.745  -0.837  0.00  0.00    +0.023 HD
ATOM     32  H   UNL     1       3.820   4.702  -1.075  0.00  0.00    +0.023 HD
ENDBRANCH  27  29
BRANCH  27  33
ATOM     33  C   UNL     1       1.986   3.975   1.057  0.00  0.00    -0.061 C 
ATOM     34  H   UNL     1       3.017   4.043   1.466  0.00  0.00    +0.023 HD
ATOM     35  H   UNL     1       1.474   4.949   1.210  0.00  0.00    +0.023 HD
ATOM     36  H   UNL     1       1.420   3.217   1.637  0.00  0.00    +0.023 HD
ENDBRANCH  27  33
ENDBRANCH  15  27
ENDBRANCH  11  15
ENDBRANCH   8  12
ENDBRANCH   3   8
ENDBRANCH   1   5
BRANCH   1  37
ATOM     37  N   UNL     1      -0.202  -3.020   2.037  0.00  0.00    -0.308 N 
ATOM     38  C   UNL     1      -1.567  -3.275   2.395  0.00  0.00    +0.234 C 
ATOM     39  O   UNL     1      -2.255  -4.088   1.719  0.00  0.00    -0.274 OA
ATOM     40  H   UNL     1       0.440  -2.690   2.791  0.00  0.00    +0.149 HD
BRANCH  38  41
ATOM     41  C   UNL     1      -2.207  -2.460   3.486  0.00  0.00    +0.108 C 
ATOM     42  H   UNL     1      -1.435  -2.241   4.258  0.00  0.00    +0.060 HD
BRANCH  41  43
ATOM     43  N   UNL     1      -2.698  -1.216   2.892  0.00  0.00    -0.298 N 
ATOM     44  C   UNL     1      -1.928  -0.007   2.929  0.00  0.00    +0.263 C 
ATOM     45  O   UNL     1      -1.262   0.283   3.960  0.00  0.00    -0.269 OA
ATOM     46  H   UNL     1      -3.487  -1.280   2.208  0.00  0.00    +0.150 HD
BRANCH  44  47
ATOM     47  C   UNL     1      -1.901   0.887   1.757  0.00  0.00    +0.126 A 
ATOM     48  C   UNL     1      -1.490   2.224   1.870  0.00  0.00    -0.031 A 
ATOM     49  C   UNL     1      -1.462   3.036   0.734  0.00  0.00    -0.050 A 
ATOM     50  C   UNL     1      -1.807   2.503  -0.513  0.00  0.00    +0.000 A 
ATOM     51  C   UNL     1      -1.762   3.283  -1.679  0.00  0.00    -0.053 A 
ATOM     52  C   UNL     1      -2.085   2.711  -2.914  0.00  0.00    -0.061 A 
ATOM     53  C   UNL     1      -2.457   1.364  -2.991  0.00  0.00    -0.060 A 
ATOM     54  C   UNL     1      -2.516   0.584  -1.832  0.00  0.00    -0.036 A 
ATOM     55  C   UNL     1      -2.195   1.149  -0.592  0.00  0.00    +0.072 A 
ATOM     56  N   UNL     1      -2.244   0.392   0.535  0.00  0.00    -0.242 NA
ATOM     57  H   UNL     1      -1.204   2.639   2.828  0.00  0.00    +0.064 HD
ATOM     58  H   UNL     1      -1.156   4.071   0.828  0.00  0.00    +0.062 HD
ATOM     59  H   UNL     1      -1.467   4.324  -1.637  0.00  0.00    +0.062 HD
ATOM     60  H   UNL     1      -2.041   3.310  -3.814  0.00  0.00    +0.062 HD
ATOM     61  H   UNL     1      -2.699   0.925  -3.950  0.00  0.00    +0.062 HD
ATOM     62  H   UNL     1      -2.804  -0.458  -1.900  0.00  0.00    +0.064 HD
ENDBRANCH  44  47
ENDBRANCH  41  43
BRANCH  41  63
ATOM     63  C   UNL     1      -3.356  -3.220   4.172  0.00  0.00    +0.051 C 
ATOM     64  H   UNL     1      -2.982  -4.198   4.547  0.00  0.00    +0.038 HD
ATOM     65  H   UNL     1      -4.172  -3.426   3.445  0.00  0.00    +0.038 HD
BRANCH  63  66
ATOM     66  C   UNL     1      -3.904  -2.435   5.328  0.00  0.00    +0.213 C 
ATOM     67  N   UNL     1      -5.022  -1.566   5.148  0.00  0.00    -0.329 N 
ATOM     68  O   UNL     1      -3.349  -2.513   6.457  0.00  0.00    -0.276 OA
ATOM     69  H   UNL     1      -5.473  -1.463   4.213  0.00  0.00    +0.145 HD
ATOM     70  H   UNL     1      -5.392  -1.011   5.952  0.00  0.00    +0.145 HD
ENDBRANCH  63  66
ENDBRANCH  41  63
ENDBRANCH  38  41
ENDBRANCH   1  37
BRANCH   1  71
ATOM     71  C   UNL     1      -0.437  -2.299  -0.338  0.00  0.00    -0.007 C 
ATOM     72  H   UNL     1      -0.138  -1.243  -0.199  0.00  0.00    +0.033 HD
ATOM     73  H   UNL     1      -1.531  -2.329  -0.148  0.00  0.00    +0.033 HD
BRANCH  71  74
ATOM     74  C   UNL     1      -0.220  -2.712  -1.773  0.00  0.00    -0.046 A 
ATOM     75  C   UNL     1      -0.809  -3.888  -2.269  0.00  0.00    -0.059 A 
ATOM     76  C   UNL     1      -0.633  -4.254  -3.607  0.00  0.00    -0.062 A 
ATOM     77  C   UNL     1       0.126  -3.448  -4.460  0.00  0.00    -0.062 A 
ATOM     78  C   UNL     1       0.710  -2.274  -3.976  0.00  0.00    -0.062 A 
ATOM     79  C   UNL     1       0.537  -1.905  -2.639  0.00  0.00    -0.059 A 
ATOM     80  H   UNL     1      -1.409  -4.515  -1.622  0.00  0.00    +0.062 HD
ATOM     81  H   UNL     1      -1.089  -5.160  -3.984  0.00  0.00    +0.062 HD
ATOM     82  H   UNL     1       0.260  -3.732  -5.495  0.00  0.00    +0.062 HD
ATOM     83  H   UNL     1       1.295  -1.648  -4.637  0.00  0.00    +0.062 HD
ATOM     84  H   UNL     1       0.990  -0.991  -2.282  0.00  0.00    +0.062 HD
ENDBRANCH  71  74
ENDBRANCH   1  71
TORSDOF 18
