REMARK  Name = 
REMARK  7 active torsions:
REMARK  status: ('A' for Active; 'I' for Inactive)
REMARK    1  A    between atoms: O_1  and  C_2
REMARK    2  A    between atoms: C_14  and  C_15
REMARK    3  A    between atoms: C_15  and  C_16
REMARK    4  A    between atoms: C_15  and  C_19
REMARK    5  A    between atoms: C_23  and  N_24
REMARK    6  A    between atoms: N_24  and  S_25
REMARK    7  A    between atoms: S_25  and  C_28
REMARK                            x       y       z     vdW  Elec       q    Type
REMARK                         _______ _______ _______ _____ _____    ______ ____
ROOT
ATOM      1  C   UNL     1       1.377  -1.041   1.526  0.00  0.00    +0.022 C 
ATOM      2  H   UNL     1       1.305  -2.066   1.099  0.00  0.00    +0.040 HD
ENDROOT
BRANCH   1  15
ATOM      3  C   UNL     1       2.558   1.154   0.955  0.00  0.00    +0.292 A 
ATOM      4  O   UNL     1       3.436   1.852   0.246  0.00  0.00    -0.429 OA
ATOM      5  C   UNL     1       4.180   1.332  -0.725  0.00  0.00    +0.116 A 
ATOM      6  C   UNL     1       5.145   2.261  -1.421  0.00  0.00    +0.006 C 
ATOM      7  C   UNL     1       6.555   2.213  -0.811  0.00  0.00    -0.046 C 
ATOM      8  C   UNL     1       7.396   1.003  -1.257  0.00  0.00    -0.053 C 
ATOM      9  C   UNL     1       7.000  -0.312  -0.555  0.00  0.00    -0.053 C 
ATOM     10  C   UNL     1       6.223  -1.287  -1.459  0.00  0.00    -0.049 C 
ATOM     11  C   UNL     1       4.946  -0.703  -2.081  0.00  0.00    -0.021 C 
ATOM     12  C   UNL     1       4.059  -0.041  -1.044  0.00  0.00    +0.038 A 
ATOM     13  C   UNL     1       3.150  -0.816  -0.300  0.00  0.00    +0.196 A 
ATOM     14  O   UNL     1       3.045  -2.052  -0.533  0.00  0.00    -0.287 OA
ATOM     15  C   UNL     1       2.368  -0.219   0.708  0.00  0.00    +0.087 A 
ATOM     16  H   UNL     1       4.762   3.298  -1.294  0.00  0.00    +0.034 HD
ATOM     17  H   UNL     1       5.173   2.101  -2.517  0.00  0.00    +0.034 HD
ATOM     18  H   UNL     1       6.499   2.263   0.299  0.00  0.00    +0.027 HD
ATOM     19  H   UNL     1       7.091   3.130  -1.142  0.00  0.00    +0.027 HD
ATOM     20  H   UNL     1       7.376   0.901  -2.364  0.00  0.00    +0.027 HD
ATOM     21  H   UNL     1       8.453   1.225  -0.990  0.00  0.00    +0.027 HD
ATOM     22  H   UNL     1       6.426  -0.118   0.376  0.00  0.00    +0.027 HD
ATOM     23  H   UNL     1       7.929  -0.833  -0.235  0.00  0.00    +0.027 HD
ATOM     24  H   UNL     1       5.952  -2.181  -0.856  0.00  0.00    +0.027 HD
ATOM     25  H   UNL     1       6.890  -1.635  -2.277  0.00  0.00    +0.027 HD
ATOM     26  H   UNL     1       5.207  -0.016  -2.906  0.00  0.00    +0.032 HD
ATOM     27  H   UNL     1       4.391  -1.528  -2.579  0.00  0.00    +0.032 HD
BRANCH   3  28
ATOM     28  O   UNL     1       1.834   1.804   1.950  0.00  0.00    -0.480 OA
ATOM     29  H   UNL     1       1.970   2.791   2.129  0.00  0.00    +0.295 HD
ENDBRANCH   3  28
ENDBRANCH   1  15
BRANCH   1  30
ATOM     30  C   UNL     1      -0.030  -0.469   1.405  0.00  0.00    -0.038 A 
ATOM     31  C   UNL     1      -0.685   0.186   2.467  0.00  0.00    -0.058 A 
ATOM     32  C   UNL     1      -1.971   0.702   2.293  0.00  0.00    -0.060 A 
ATOM     33  C   UNL     1      -2.620   0.580   1.065  0.00  0.00    -0.039 A 
ATOM     34  C   UNL     1      -1.984  -0.059  -0.014  0.00  0.00    +0.048 A 
ATOM     35  C   UNL     1      -0.695  -0.583   0.170  0.00  0.00    -0.036 A 
ATOM     36  H   UNL     1      -0.214   0.308   3.431  0.00  0.00    +0.062 HD
ATOM     37  H   UNL     1      -2.467   1.198   3.118  0.00  0.00    +0.062 HD
ATOM     38  H   UNL     1      -3.620   0.979   0.973  0.00  0.00    +0.064 HD
ATOM     39  H   UNL     1      -0.201  -1.078  -0.658  0.00  0.00    +0.064 HD
BRANCH  34  40
ATOM     40  N   UNL     1      -2.625  -0.211  -1.294  0.00  0.00    -0.216 N 
ATOM     41  H   UNL     1      -2.154  -0.780  -2.033  0.00  0.00    +0.174 HD
BRANCH  40  42
ATOM     42  S   UNL     1      -4.111   0.572  -1.740  0.00  0.00    +0.073 S 
ATOM     43  O   UNL     1      -4.293   0.436  -3.225  0.00  0.00    -0.150 OA
ATOM     44  O   UNL     1      -4.010   2.030  -1.389  0.00  0.00    -0.150 OA
BRANCH  42  45
ATOM     45  C   UNL     1      -5.500  -0.171  -0.922  0.00  0.00    +0.116 A 
ATOM     46  C   UNL     1      -5.286  -1.332  -0.161  0.00  0.00    -0.034 A 
ATOM     47  C   UNL     1      -6.335  -1.942   0.525  0.00  0.00    -0.059 A 
ATOM     48  C   UNL     1      -7.621  -1.411   0.460  0.00  0.00    -0.054 A 
ATOM     49  C   UNL     1      -7.873  -0.266  -0.307  0.00  0.00    -0.016 A 
ATOM     50  C   UNL     1      -9.175   0.253  -0.379  0.00  0.00    -0.054 A 
ATOM     51  C   UNL     1      -9.441   1.385  -1.150  0.00  0.00    -0.061 A 
ATOM     52  C   UNL     1      -8.413   2.004  -1.859  0.00  0.00    -0.061 A 
ATOM     53  C   UNL     1      -7.111   1.503  -1.798  0.00  0.00    -0.052 A 
ATOM     54  C   UNL     1      -6.813   0.365  -1.016  0.00  0.00    +0.009 A 
ATOM     55  H   UNL     1      -4.303  -1.775  -0.091  0.00  0.00    +0.064 HD
ATOM     56  H   UNL     1      -6.149  -2.832   1.112  0.00  0.00    +0.062 HD
ATOM     57  H   UNL     1      -8.420  -1.901   1.002  0.00  0.00    +0.062 HD
ATOM     58  H   UNL     1      -9.989  -0.218   0.160  0.00  0.00    +0.062 HD
ATOM     59  H   UNL     1     -10.447   1.779  -1.202  0.00  0.00    +0.062 HD
ATOM     60  H   UNL     1      -8.627   2.878  -2.461  0.00  0.00    +0.062 HD
ATOM     61  H   UNL     1      -6.354   2.011  -2.376  0.00  0.00    +0.062 HD
ENDBRANCH  42  45
ENDBRANCH  40  42
ENDBRANCH  34  40
ENDBRANCH   1  30
BRANCH   1  62
ATOM     62  C   UNL     1       1.885  -1.167   2.982  0.00  0.00    -0.030 C 
ATOM     63  C   UNL     1       1.395  -2.387   3.748  0.00  0.00    -0.049 C 
ATOM     64  C   UNL     1       2.828  -2.333   3.244  0.00  0.00    -0.049 C 
ATOM     65  H   UNL     1       2.094  -0.264   3.595  0.00  0.00    +0.031 HD
ATOM     66  H   UNL     1       1.293  -2.228   4.843  0.00  0.00    +0.027 HD
ATOM     67  H   UNL     1       0.740  -3.086   3.186  0.00  0.00    +0.027 HD
ATOM     68  H   UNL     1       3.578  -2.149   4.042  0.00  0.00    +0.027 HD
ATOM     69  H   UNL     1       3.031  -3.009   2.386  0.00  0.00    +0.027 HD
ENDBRANCH   1  62
TORSDOF 7
