REMARK  Name = 
REMARK  18 active torsions:
REMARK  status: ('A' for Active; 'I' for Inactive)
REMARK    1  A    between atoms: C_1  and  C_2
REMARK    2  A    between atoms: C_2  and  C_3
REMARK    3  A    between atoms: C_2  and  C_4
REMARK    4  A    between atoms: C_4  and  N_5
REMARK    5  A    between atoms: C_4  and  C_41
REMARK    6  A    between atoms: C_6  and  C_8
REMARK    7  A    between atoms: C_8  and  C_9
REMARK    8  A    between atoms: C_11  and  C_12
REMARK    9  A    between atoms: C_12  and  C_13
REMARK   10  A    between atoms: C_12  and  N_20
REMARK   11  A    between atoms: C_13  and  C_14
REMARK   12  A    between atoms: C_21  and  C_23
REMARK   13  A    between atoms: C_23  and  C_24
REMARK   14  A    between atoms: C_23  and  N_28
REMARK   15  A    between atoms: C_24  and  C_25
REMARK   16  A    between atoms: C_29  and  C_31
REMARK   17  A    between atoms: C_41  and  C_42
REMARK   18  A    between atoms: C_41  and  C_43
REMARK                            x       y       z     vdW  Elec       q    Type
REMARK                         _______ _______ _______ _____ _____    ______ ____
ROOT
ATOM      1  C   UNL     1      -0.188  -3.589  -1.692  0.00  0.00    +0.056 C 
ATOM      2  H   UNL     1       0.630  -4.310  -1.914  0.00  0.00    +0.053 HD
ENDROOT
BRANCH   1   5
ATOM      3  C   UNL     1      -0.539  -1.043  -2.447  0.00  0.00    +0.095 C 
ATOM      4  O   UNL     1      -1.202  -1.970  -3.275  0.00  0.00    -0.366 OA
ATOM      5  C   UNL     1       0.006  -2.415  -2.691  0.00  0.00    +0.104 C 
ATOM      6  H   UNL     1      -0.078  -0.220  -3.035  0.00  0.00    +0.063 HD
ATOM      7  H   UNL     1       0.805  -2.502  -3.457  0.00  0.00    +0.064 HD
BRANCH   3   8
ATOM      8  C   UNL     1      -1.381  -0.711  -1.210  0.00  0.00    +0.053 C 
ATOM      9  H   UNL     1      -0.711  -0.615  -0.331  0.00  0.00    +0.038 HD
ATOM     10  H   UNL     1      -2.130  -1.500  -0.992  0.00  0.00    +0.038 HD
BRANCH   8  12
ATOM     11  N   UNL     1      -1.636   1.783  -0.782  0.00  0.00    -0.312 N 
ATOM     12  C   UNL     1      -2.101   0.585  -1.422  0.00  0.00    +0.216 C 
ATOM     13  O   UNL     1      -3.099   0.616  -2.192  0.00  0.00    -0.276 OA
ATOM     14  H   UNL     1      -0.807   1.709  -0.151  0.00  0.00    +0.149 HD
BRANCH  11  15
ATOM     15  C   UNL     1      -2.149   3.116  -1.133  0.00  0.00    +0.028 C 
ATOM     16  H   UNL     1      -3.202   2.995  -1.476  0.00  0.00    +0.050 HD
BRANCH  15  17
ATOM     17  C   UNL     1      -1.387   3.686  -2.371  0.00  0.00    -0.028 C 
ATOM     18  H   UNL     1      -1.685   3.046  -3.233  0.00  0.00    +0.031 HD
BRANCH  17  19
ATOM     19  C   UNL     1       0.148   3.581  -2.295  0.00  0.00    -0.061 C 
ATOM     20  H   UNL     1       0.468   2.543  -2.068  0.00  0.00    +0.023 HD
ATOM     21  H   UNL     1       0.578   4.266  -1.543  0.00  0.00    +0.023 HD
ATOM     22  H   UNL     1       0.588   3.851  -3.279  0.00  0.00    +0.023 HD
ENDBRANCH  17  19
BRANCH  17  23
ATOM     23  C   UNL     1      -1.821   5.113  -2.733  0.00  0.00    -0.061 C 
ATOM     24  H   UNL     1      -2.928   5.173  -2.796  0.00  0.00    +0.023 HD
ATOM     25  H   UNL     1      -1.404   5.396  -3.724  0.00  0.00    +0.023 HD
ATOM     26  H   UNL     1      -1.459   5.846  -1.984  0.00  0.00    +0.023 HD
ENDBRANCH  17  23
ENDBRANCH  15  17
BRANCH  15  27
ATOM     27  C   UNL     1      -2.263   4.037   0.126  0.00  0.00    -0.028 C 
ATOM     28  H   UNL     1      -2.814   4.957  -0.167  0.00  0.00    +0.031 HD
BRANCH  27  29
ATOM     29  C   UNL     1      -3.117   3.359   1.211  0.00  0.00    -0.061 C 
ATOM     30  H   UNL     1      -4.093   3.034   0.791  0.00  0.00    +0.023 HD
ATOM     31  H   UNL     1      -2.594   2.473   1.631  0.00  0.00    +0.023 HD
ATOM     32  H   UNL     1      -3.324   4.071   2.038  0.00  0.00    +0.023 HD
ENDBRANCH  27  29
BRANCH  27  33
ATOM     33  C   UNL     1      -0.921   4.484   0.726  0.00  0.00    -0.061 C 
ATOM     34  H   UNL     1      -0.218   3.635   0.822  0.00  0.00    +0.023 HD
ATOM     35  H   UNL     1      -1.070   4.923   1.736  0.00  0.00    +0.023 HD
ATOM     36  H   UNL     1      -0.464   5.283   0.110  0.00  0.00    +0.023 HD
ENDBRANCH  27  33
ENDBRANCH  15  27
ENDBRANCH  11  15
ENDBRANCH   8  12
ENDBRANCH   3   8
ENDBRANCH   1   5
BRANCH   1  37
ATOM     37  N   UNL     1      -0.022  -3.147  -0.304  0.00  0.00    -0.308 N 
ATOM     38  C   UNL     1       1.234  -2.672   0.198  0.00  0.00    +0.234 C 
ATOM     39  O   UNL     1       2.269  -2.736  -0.520  0.00  0.00    -0.274 OA
ATOM     40  H   UNL     1      -0.839  -3.177   0.347  0.00  0.00    +0.149 HD
BRANCH  38  41
ATOM     41  C   UNL     1       1.324  -2.111   1.594  0.00  0.00    +0.108 C 
ATOM     42  H   UNL     1       0.295  -2.026   2.010  0.00  0.00    +0.060 HD
BRANCH  41  43
ATOM     43  N   UNL     1       1.929  -0.777   1.548  0.00  0.00    -0.298 N 
ATOM     44  C   UNL     1       1.492   0.297   2.394  0.00  0.00    +0.263 C 
ATOM     45  O   UNL     1       0.770   0.052   3.400  0.00  0.00    -0.269 OA
ATOM     46  H   UNL     1       2.747  -0.615   0.917  0.00  0.00    +0.150 HD
BRANCH  44  47
ATOM     47  C   UNL     1       1.877   1.688   2.085  0.00  0.00    +0.126 A 
ATOM     48  C   UNL     1       1.649   2.727   3.003  0.00  0.00    -0.031 A 
ATOM     49  C   UNL     1       2.004   4.036   2.669  0.00  0.00    -0.050 A 
ATOM     50  C   UNL     1       2.571   4.308   1.419  0.00  0.00    +0.000 A 
ATOM     51  C   UNL     1       2.913   5.614   1.040  0.00  0.00    -0.053 A 
ATOM     52  C   UNL     1       3.466   5.852  -0.223  0.00  0.00    -0.061 A 
ATOM     53  C   UNL     1       3.683   4.791  -1.108  0.00  0.00    -0.060 A 
ATOM     54  C   UNL     1       3.346   3.486  -0.737  0.00  0.00    -0.036 A 
ATOM     55  C   UNL     1       2.786   3.239   0.521  0.00  0.00    +0.072 A 
ATOM     56  N   UNL     1       2.437   1.974   0.877  0.00  0.00    -0.242 NA
ATOM     57  H   UNL     1       1.202   2.529   3.969  0.00  0.00    +0.064 HD
ATOM     58  H   UNL     1       1.823   4.834   3.379  0.00  0.00    +0.062 HD
ATOM     59  H   UNL     1       2.750   6.446   1.714  0.00  0.00    +0.062 HD
ATOM     60  H   UNL     1       3.728   6.861  -0.516  0.00  0.00    +0.062 HD
ATOM     61  H   UNL     1       4.110   4.981  -2.084  0.00  0.00    +0.062 HD
ATOM     62  H   UNL     1       3.510   2.671  -1.432  0.00  0.00    +0.064 HD
ENDBRANCH  44  47
ENDBRANCH  41  43
BRANCH  41  63
ATOM     63  C   UNL     1       2.146  -3.034   2.508  0.00  0.00    +0.051 C 
ATOM     64  H   UNL     1       2.298  -2.536   3.490  0.00  0.00    +0.038 HD
ATOM     65  H   UNL     1       3.151  -3.217   2.070  0.00  0.00    +0.038 HD
BRANCH  63  66
ATOM     66  C   UNL     1       1.440  -4.343   2.733  0.00  0.00    +0.213 C 
ATOM     67  N   UNL     1       1.632  -5.435   1.834  0.00  0.00    -0.329 N 
ATOM     68  O   UNL     1       0.636  -4.461   3.696  0.00  0.00    -0.276 OA
ATOM     69  H   UNL     1       1.107  -6.328   1.970  0.00  0.00    +0.145 HD
ATOM     70  H   UNL     1       2.284  -5.351   1.023  0.00  0.00    +0.145 HD
ENDBRANCH  63  66
ENDBRANCH  41  63
ENDBRANCH  38  41
ENDBRANCH   1  37
BRANCH   1  71
ATOM     71  C   UNL     1      -1.511  -4.362  -1.888  0.00  0.00    -0.007 C 
ATOM     72  H   UNL     1      -1.612  -4.653  -2.957  0.00  0.00    +0.033 HD
ATOM     73  H   UNL     1      -2.380  -3.714  -1.646  0.00  0.00    +0.033 HD
BRANCH  71  74
ATOM     74  C   UNL     1      -1.543  -5.610  -1.040  0.00  0.00    -0.046 A 
ATOM     75  C   UNL     1      -0.817  -6.748  -1.433  0.00  0.00    -0.059 A 
ATOM     76  C   UNL     1      -0.800  -7.888  -0.623  0.00  0.00    -0.062 A 
ATOM     77  C   UNL     1      -1.503  -7.899   0.585  0.00  0.00    -0.062 A 
ATOM     78  C   UNL     1      -2.225  -6.772   0.984  0.00  0.00    -0.062 A 
ATOM     79  C   UNL     1      -2.246  -5.630   0.177  0.00  0.00    -0.059 A 
ATOM     80  H   UNL     1      -0.260  -6.748  -2.362  0.00  0.00    +0.062 HD
ATOM     81  H   UNL     1      -0.238  -8.760  -0.929  0.00  0.00    +0.062 HD
ATOM     82  H   UNL     1      -1.486  -8.781   1.212  0.00  0.00    +0.062 HD
ATOM     83  H   UNL     1      -2.766  -6.780   1.922  0.00  0.00    +0.062 HD
ATOM     84  H   UNL     1      -2.804  -4.762   0.504  0.00  0.00    +0.062 HD
ENDBRANCH  71  74
ENDBRANCH   1  71
TORSDOF 18
