REMARK  Name = 
REMARK  18 active torsions:
REMARK  status: ('A' for Active; 'I' for Inactive)
REMARK    1  A    between atoms: C_1  and  C_2
REMARK    2  A    between atoms: C_2  and  C_3
REMARK    3  A    between atoms: C_2  and  C_4
REMARK    4  A    between atoms: C_4  and  N_5
REMARK    5  A    between atoms: C_4  and  C_41
REMARK    6  A    between atoms: C_6  and  C_8
REMARK    7  A    between atoms: C_8  and  C_9
REMARK    8  A    between atoms: C_11  and  C_12
REMARK    9  A    between atoms: C_12  and  C_13
REMARK   10  A    between atoms: C_12  and  N_20
REMARK   11  A    between atoms: C_13  and  C_14
REMARK   12  A    between atoms: C_21  and  C_23
REMARK   13  A    between atoms: C_23  and  C_24
REMARK   14  A    between atoms: C_23  and  N_28
REMARK   15  A    between atoms: C_24  and  C_25
REMARK   16  A    between atoms: C_29  and  C_31
REMARK   17  A    between atoms: C_41  and  C_42
REMARK   18  A    between atoms: C_41  and  C_43
REMARK                            x       y       z     vdW  Elec       q    Type
REMARK                         _______ _______ _______ _____ _____    ______ ____
ROOT
ATOM      1  C   UNL     1       0.017  -0.882  -1.205  0.00  0.00    +0.056 C 
ATOM      2  H   UNL     1       0.763  -1.224  -1.955  0.00  0.00    +0.053 HD
ENDROOT
BRANCH   1   5
ATOM      3  C   UNL     1      -1.051   1.524  -0.684  0.00  0.00    +0.095 C 
ATOM      4  O   UNL     1      -1.749   0.799  -1.670  0.00  0.00    -0.366 OA
ATOM      5  C   UNL     1      -0.359   0.571  -1.609  0.00  0.00    +0.104 C 
ATOM      6  H   UNL     1      -1.005   2.602  -0.946  0.00  0.00    +0.063 HD
ATOM      7  H   UNL     1       0.157   1.023  -2.482  0.00  0.00    +0.064 HD
BRANCH   3   8
ATOM      8  C   UNL     1      -1.537   1.131   0.716  0.00  0.00    +0.053 C 
ATOM      9  H   UNL     1      -1.554   0.042   0.885  0.00  0.00    +0.038 HD
ATOM     10  H   UNL     1      -0.847   1.572   1.465  0.00  0.00    +0.038 HD
BRANCH   8  12
ATOM     11  N   UNL     1      -4.053   0.917   0.477  0.00  0.00    -0.312 N 
ATOM     12  C   UNL     1      -2.918   1.665   0.937  0.00  0.00    +0.216 C 
ATOM     13  O   UNL     1      -3.071   2.790   1.487  0.00  0.00    -0.276 OA
ATOM     14  H   UNL     1      -3.895  -0.056   0.130  0.00  0.00    +0.149 HD
BRANCH  11  15
ATOM     15  C   UNL     1      -5.436   1.396   0.603  0.00  0.00    +0.028 C 
ATOM     16  H   UNL     1      -5.416   2.506   0.679  0.00  0.00    +0.050 HD
BRANCH  15  17
ATOM     17  C   UNL     1      -6.219   1.050  -0.707  0.00  0.00    -0.028 C 
ATOM     18  H   UNL     1      -6.246  -0.054  -0.840  0.00  0.00    +0.031 HD
BRANCH  17  19
ATOM     19  C   UNL     1      -5.494   1.632  -1.936  0.00  0.00    -0.061 C 
ATOM     20  H   UNL     1      -4.471   1.213  -2.032  0.00  0.00    +0.023 HD
ATOM     21  H   UNL     1      -5.422   2.738  -1.860  0.00  0.00    +0.023 HD
ATOM     22  H   UNL     1      -6.039   1.371  -2.869  0.00  0.00    +0.023 HD
ENDBRANCH  17  19
BRANCH  17  23
ATOM     23  C   UNL     1      -7.666   1.568  -0.701  0.00  0.00    -0.061 C 
ATOM     24  H   UNL     1      -8.311   0.922  -0.074  0.00  0.00    +0.023 HD
ATOM     25  H   UNL     1      -7.710   2.617  -0.338  0.00  0.00    +0.023 HD
ATOM     26  H   UNL     1      -8.103   1.532  -1.722  0.00  0.00    +0.023 HD
ENDBRANCH  17  23
ENDBRANCH  15  17
BRANCH  15  27
ATOM     27  C   UNL     1      -6.021   0.833   1.939  0.00  0.00    -0.028 C 
ATOM     28  H   UNL     1      -5.194   0.866   2.685  0.00  0.00    +0.031 HD
BRANCH  27  29
ATOM     29  C   UNL     1      -6.456  -0.637   1.855  0.00  0.00    -0.061 C 
ATOM     30  H   UNL     1      -6.690  -1.020   2.872  0.00  0.00    +0.023 HD
ATOM     31  H   UNL     1      -5.638  -1.260   1.436  0.00  0.00    +0.023 HD
ATOM     32  H   UNL     1      -7.361  -0.758   1.226  0.00  0.00    +0.023 HD
ENDBRANCH  27  29
BRANCH  27  33
ATOM     33  C   UNL     1      -7.127   1.710   2.548  0.00  0.00    -0.061 C 
ATOM     34  H   UNL     1      -7.306   1.405   3.602  0.00  0.00    +0.023 HD
ATOM     35  H   UNL     1      -8.088   1.613   2.011  0.00  0.00    +0.023 HD
ATOM     36  H   UNL     1      -6.821   2.778   2.554  0.00  0.00    +0.023 HD
ENDBRANCH  27  33
ENDBRANCH  15  27
ENDBRANCH  11  15
ENDBRANCH   8  12
ENDBRANCH   3   8
ENDBRANCH   1   5
BRANCH   1  37
ATOM     37  N   UNL     1       0.688  -0.912   0.099  0.00  0.00    -0.308 N 
ATOM     38  C   UNL     1       1.968  -0.300   0.314  0.00  0.00    +0.234 C 
ATOM     39  O   UNL     1       2.527   0.345  -0.616  0.00  0.00    -0.274 OA
ATOM     40  H   UNL     1       0.266  -1.462   0.882  0.00  0.00    +0.149 HD
BRANCH  38  41
ATOM     41  C   UNL     1       2.631  -0.391   1.666  0.00  0.00    +0.108 C 
ATOM     42  H   UNL     1       2.325  -1.350   2.142  0.00  0.00    +0.060 HD
BRANCH  41  43
ATOM     43  N   UNL     1       4.093  -0.401   1.530  0.00  0.00    -0.298 N 
ATOM     44  C   UNL     1       4.794  -1.508   0.938  0.00  0.00    +0.263 C 
ATOM     45  O   UNL     1       4.148  -2.518   0.545  0.00  0.00    -0.269 OA
ATOM     46  H   UNL     1       4.648   0.402   1.901  0.00  0.00    +0.150 HD
BRANCH  44  47
ATOM     47  C   UNL     1       6.265  -1.471   0.784  0.00  0.00    +0.126 A 
ATOM     48  C   UNL     1       6.961  -2.553   0.218  0.00  0.00    -0.031 A 
ATOM     49  C   UNL     1       8.350  -2.490   0.083  0.00  0.00    -0.050 A 
ATOM     50  C   UNL     1       9.040  -1.350   0.510  0.00  0.00    +0.000 A 
ATOM     51  C   UNL     1      10.435  -1.253   0.389  0.00  0.00    -0.053 A 
ATOM     52  C   UNL     1      11.095  -0.100   0.826  0.00  0.00    -0.061 A 
ATOM     53  C   UNL     1      10.369   0.958   1.385  0.00  0.00    -0.060 A 
ATOM     54  C   UNL     1       8.979   0.869   1.509  0.00  0.00    -0.036 A 
ATOM     55  C   UNL     1       8.310  -0.281   1.074  0.00  0.00    +0.072 A 
ATOM     56  N   UNL     1       6.959  -0.372   1.193  0.00  0.00    -0.242 NA
ATOM     57  H   UNL     1       6.438  -3.440  -0.117  0.00  0.00    +0.064 HD
ATOM     58  H   UNL     1       8.881  -3.327  -0.354  0.00  0.00    +0.062 HD
ATOM     59  H   UNL     1      11.010  -2.064  -0.041  0.00  0.00    +0.062 HD
ATOM     60  H   UNL     1      12.171  -0.025   0.733  0.00  0.00    +0.062 HD
ATOM     61  H   UNL     1      10.885   1.848   1.721  0.00  0.00    +0.062 HD
ATOM     62  H   UNL     1       8.425   1.692   1.942  0.00  0.00    +0.064 HD
ENDBRANCH  44  47
ENDBRANCH  41  43
BRANCH  41  63
ATOM     63  C   UNL     1       2.154   0.740   2.601  0.00  0.00    +0.051 C 
ATOM     64  H   UNL     1       2.624   0.605   3.600  0.00  0.00    +0.038 HD
ATOM     65  H   UNL     1       1.057   0.651   2.753  0.00  0.00    +0.038 HD
BRANCH  63  66
ATOM     66  C   UNL     1       2.466   2.118   2.082  0.00  0.00    +0.213 C 
ATOM     67  N   UNL     1       3.601   2.838   2.565  0.00  0.00    -0.329 N 
ATOM     68  O   UNL     1       1.723   2.643   1.211  0.00  0.00    -0.276 OA
ATOM     69  H   UNL     1       4.221   2.430   3.300  0.00  0.00    +0.145 HD
ATOM     70  H   UNL     1       3.820   3.788   2.191  0.00  0.00    +0.145 HD
ENDBRANCH  63  66
ENDBRANCH  41  63
ENDBRANCH  38  41
ENDBRANCH   1  37
BRANCH   1  71
ATOM     71  C   UNL     1      -1.146  -1.907  -1.256  0.00  0.00    -0.007 C 
ATOM     72  H   UNL     1      -0.758  -2.901  -0.943  0.00  0.00    +0.033 HD
ATOM     73  H   UNL     1      -1.937  -1.640  -0.526  0.00  0.00    +0.033 HD
BRANCH  71  74
ATOM     74  C   UNL     1      -1.736  -2.053  -2.639  0.00  0.00    -0.046 A 
ATOM     75  C   UNL     1      -0.979  -2.623  -3.678  0.00  0.00    -0.059 A 
ATOM     76  C   UNL     1      -1.525  -2.755  -4.958  0.00  0.00    -0.062 A 
ATOM     77  C   UNL     1      -2.831  -2.326  -5.211  0.00  0.00    -0.062 A 
ATOM     78  C   UNL     1      -3.595  -1.770  -4.182  0.00  0.00    -0.062 A 
ATOM     79  C   UNL     1      -3.054  -1.639  -2.900  0.00  0.00    -0.059 A 
ATOM     80  H   UNL     1       0.031  -2.968  -3.496  0.00  0.00    +0.062 HD
ATOM     81  H   UNL     1      -0.936  -3.191  -5.755  0.00  0.00    +0.062 HD
ATOM     82  H   UNL     1      -3.252  -2.428  -6.203  0.00  0.00    +0.062 HD
ATOM     83  H   UNL     1      -4.608  -1.443  -4.377  0.00  0.00    +0.062 HD
ATOM     84  H   UNL     1      -3.663  -1.213  -2.113  0.00  0.00    +0.062 HD
ENDBRANCH  71  74
ENDBRANCH   1  71
TORSDOF 18
