REMARK  Name = 
REMARK  16 active torsions:
REMARK  status: ('A' for Active; 'I' for Inactive)
REMARK    1  A    between atoms: C_1  and  C_2
REMARK    2  A    between atoms: C_2  and  C_3
REMARK    3  A    between atoms: C_2  and  C_4
REMARK    4  A    between atoms: C_4  and  C_5
REMARK    5  A    between atoms: C_5  and  C_6
REMARK    6  A    between atoms: C_6  and  C_7
REMARK    7  A    between atoms: C_19  and  S_20
REMARK    8  A    between atoms: S_20  and  C_21
REMARK    9  A    between atoms: C_23  and  C_24
REMARK   10  A    between atoms: C_25  and  C_26
REMARK   11  A    between atoms: C_26  and  O_27
REMARK   12  A    between atoms: C_29  and  C_30
REMARK   13  A    between atoms: C_30  and  C_31
REMARK   14  A    between atoms: C_30  and  C_32
REMARK   15  A    between atoms: C_30  and  C_33
REMARK   16  A    between atoms: C_34  and  O_35
REMARK                            x       y       z     vdW  Elec       q    Type
REMARK                         _______ _______ _______ _____ _____    ______ ____
ROOT
ATOM      1  C   UNL     1       1.599   1.946  -0.295  0.00  0.00    +0.123 C 
ATOM      2  C   UNL     1       0.538   1.892  -1.438  0.00  0.00    +0.051 C 
ATOM      3  C   UNL     1      -0.848   2.196  -0.957  0.00  0.00    +0.180 C 
ATOM      4  O   UNL     1      -1.683   2.705  -1.753  0.00  0.00    -0.291 OA
ATOM      5  C   UNL     1      -1.251   1.848   0.413  0.00  0.00    +0.135 C 
ATOM      6  C   UNL     1      -0.311   1.490   1.294  0.00  0.00    +0.297 C 
ATOM      7  O   UNL     1       1.043   1.443   0.932  0.00  0.00    -0.456 OA
ATOM      8  H   UNL     1       0.494   0.876  -1.887  0.00  0.00    +0.038 HD
ATOM      9  H   UNL     1       0.812   2.598  -2.253  0.00  0.00    +0.038 HD
ENDROOT
BRANCH   1  10
ATOM     10  C   UNL     1       2.762   0.972  -0.661  0.00  0.00    -0.006 C 
ATOM     11  H   UNL     1       3.455   0.868   0.201  0.00  0.00    +0.031 HD
ATOM     12  H   UNL     1       2.335  -0.045  -0.811  0.00  0.00    +0.031 HD
BRANCH  10  13
ATOM     13  C   UNL     1       3.567   1.355  -1.915  0.00  0.00    -0.000 C 
ATOM     14  H   UNL     1       2.894   1.486  -2.788  0.00  0.00    +0.033 HD
ATOM     15  H   UNL     1       4.116   2.305  -1.752  0.00  0.00    +0.033 HD
BRANCH  13  16
ATOM     16  C   UNL     1       4.563   0.287  -2.235  0.00  0.00    +0.080 A 
ATOM     17  N   UNL     1       4.279  -0.779  -3.022  0.00  0.00    -0.244 NA
ATOM     18  C   UNL     1       5.339  -1.625  -3.093  0.00  0.00    +0.078 A 
ATOM     19  C   UNL     1       5.355  -2.810  -3.831  0.00  0.00    -0.035 A 
ATOM     20  C   UNL     1       6.517  -3.600  -3.813  0.00  0.00    -0.060 A 
ATOM     21  C   UNL     1       7.641  -3.201  -3.062  0.00  0.00    -0.061 A 
ATOM     22  C   UNL     1       7.613  -2.008  -2.322  0.00  0.00    -0.046 A 
ATOM     23  C   UNL     1       6.450  -1.243  -2.358  0.00  0.00    +0.039 A 
ATOM     24  S   UNL     1       6.123   0.206  -1.578  0.00  0.00    -0.072 S 
ATOM     25  H   UNL     1       4.490  -3.116  -4.405  0.00  0.00    +0.064 HD
ATOM     26  H   UNL     1       6.549  -4.522  -4.380  0.00  0.00    +0.062 HD
ATOM     27  H   UNL     1       8.531  -3.817  -3.055  0.00  0.00    +0.062 HD
ATOM     28  H   UNL     1       8.470  -1.694  -1.741  0.00  0.00    +0.063 HD
ENDBRANCH  13  16
ENDBRANCH  10  13
ENDBRANCH   1  10
BRANCH   6  29
ATOM     29  O   UNL     1      -0.662   1.146   2.592  0.00  0.00    -0.479 OA
ATOM     30  H   UNL     1       0.045   0.871   3.262  0.00  0.00    +0.295 HD
ENDBRANCH   6  29
BRANCH   1  31
ATOM     31  C   UNL     1       2.127   3.416  -0.060  0.00  0.00    -0.006 C 
ATOM     32  H   UNL     1       2.568   3.794  -1.007  0.00  0.00    +0.033 HD
BRANCH  31  33
ATOM     33  C   UNL     1       1.018   4.417   0.315  0.00  0.00    -0.059 C 
ATOM     34  H   UNL     1       0.285   4.527  -0.509  0.00  0.00    +0.023 HD
ATOM     35  H   UNL     1       1.452   5.427   0.479  0.00  0.00    +0.023 HD
ATOM     36  H   UNL     1       0.498   4.112   1.246  0.00  0.00    +0.023 HD
ENDBRANCH  31  33
BRANCH  31  37
ATOM     37  C   UNL     1       3.230   3.480   1.016  0.00  0.00    -0.059 C 
ATOM     38  H   UNL     1       3.517   4.534   1.219  0.00  0.00    +0.023 HD
ATOM     39  H   UNL     1       4.151   2.966   0.676  0.00  0.00    +0.023 HD
ATOM     40  H   UNL     1       2.882   3.022   1.966  0.00  0.00    +0.023 HD
ENDBRANCH  31  37
ENDBRANCH   1  31
BRANCH   5  41
ATOM     41  S   UNL     1      -2.999   1.947   0.866  0.00  0.00    -0.079 S 
BRANCH  41  42
ATOM     42  C   UNL     1      -3.341   0.180   0.676  0.00  0.00    +0.017 A 
ATOM     43  C   UNL     1      -3.118  -0.358  -0.600  0.00  0.00    -0.044 A 
ATOM     44  C   UNL     1      -3.187  -1.732  -0.839  0.00  0.00    -0.044 A 
ATOM     45  C   UNL     1      -3.467  -2.600   0.232  0.00  0.00    -0.019 A 
ATOM     46  C   UNL     1      -3.800  -2.062   1.484  0.00  0.00    -0.051 A 
ATOM     47  C   UNL     1      -3.808  -0.664   1.735  0.00  0.00    -0.028 A 
ATOM     48  H   UNL     1      -2.854   0.303  -1.414  0.00  0.00    +0.063 HD
ATOM     49  H   UNL     1      -4.072  -2.770   2.251  0.00  0.00    +0.062 HD
BRANCH  44  50
ATOM     50  C   UNL     1      -2.885  -2.252  -2.221  0.00  0.00    -0.039 C 
ATOM     51  H   UNL     1      -3.648  -2.996  -2.530  0.00  0.00    +0.028 HD
ATOM     52  H   UNL     1      -1.881  -2.725  -2.230  0.00  0.00    +0.028 HD
ATOM     53  H   UNL     1      -2.893  -1.435  -2.975  0.00  0.00    +0.028 HD
ENDBRANCH  44  50
BRANCH  45  54
ATOM     54  C   UNL     1      -3.514  -4.100   0.048  0.00  0.00    +0.069 C 
ATOM     55  H   UNL     1      -2.698  -4.432  -0.627  0.00  0.00    +0.061 HD
ATOM     56  H   UNL     1      -3.344  -4.628   1.014  0.00  0.00    +0.061 HD
BRANCH  54  57
ATOM     57  O   UNL     1      -4.745  -4.482  -0.501  0.00  0.00    -0.390 OA
ATOM     58  H   UNL     1      -5.414  -4.413   0.229  0.00  0.00    +0.210 HD
ENDBRANCH  54  57
ENDBRANCH  45  54
BRANCH  47  59
ATOM     59  C   UNL     1      -4.420  -0.109   3.062  0.00  0.00    -0.012 C 
BRANCH  59  60
ATOM     60  C   UNL     1      -3.355   0.602   3.922  0.00  0.00    -0.056 C 
ATOM     61  H   UNL     1      -3.038   1.567   3.490  0.00  0.00    +0.024 HD
ATOM     62  H   UNL     1      -2.469  -0.055   4.055  0.00  0.00    +0.024 HD
ATOM     63  H   UNL     1      -3.756   0.841   4.931  0.00  0.00    +0.024 HD
ENDBRANCH  59  60
BRANCH  59  64
ATOM     64  C   UNL     1      -5.030  -1.223   3.958  0.00  0.00    -0.056 C 
ATOM     65  H   UNL     1      -5.817  -1.788   3.412  0.00  0.00    +0.024 HD
ATOM     66  H   UNL     1      -5.509  -0.792   4.865  0.00  0.00    +0.024 HD
ATOM     67  H   UNL     1      -4.245  -1.924   4.316  0.00  0.00    +0.024 HD
ENDBRANCH  59  64
BRANCH  59  68
ATOM     68  C   UNL     1      -5.582   0.864   2.746  0.00  0.00    -0.056 C 
ATOM     69  H   UNL     1      -5.240   1.798   2.267  0.00  0.00    +0.024 HD
ATOM     70  H   UNL     1      -6.319   0.377   2.072  0.00  0.00    +0.024 HD
ATOM     71  H   UNL     1      -6.110   1.168   3.676  0.00  0.00    +0.024 HD
ENDBRANCH  59  68
ENDBRANCH  47  59
ENDBRANCH  41  42
ENDBRANCH   5  41
TORSDOF 16
