REMARK  Name = 
REMARK  10 active torsions:
REMARK  status: ('A' for Active; 'I' for Inactive)
REMARK    1  A    between atoms: C_1  and  C_2
REMARK    2  A    between atoms: C_2  and  C_3
REMARK    3  A    between atoms: C_3  and  C_4
REMARK    4  A    between atoms: C_3  and  C_25
REMARK    5  A    between atoms: C_8  and  N_9
REMARK    6  A    between atoms: C_10  and  C_12
REMARK    7  A    between atoms: C_12  and  C_13
REMARK    8  A    between atoms: C_13  and  N_14
REMARK    9  A    between atoms: N_14  and  C_15
REMARK   10  A    between atoms: C_26  and  O_27
REMARK                            x       y       z     vdW  Elec       q    Type
REMARK                         _______ _______ _______ _____ _____    ______ ____
ROOT
ATOM      1  C   UNL     1      -2.708   0.099  -0.998  0.00  0.00    -0.038 A 
ATOM      2  C   UNL     1      -3.104  -1.134  -1.545  0.00  0.00    -0.058 A 
ATOM      3  C   UNL     1      -2.164  -2.139  -1.778  0.00  0.00    -0.060 A 
ATOM      4  C   UNL     1      -0.818  -1.925  -1.480  0.00  0.00    -0.040 A 
ATOM      5  C   UNL     1      -0.394  -0.695  -0.958  0.00  0.00    +0.034 A 
ATOM      6  C   UNL     1      -1.348   0.306  -0.700  0.00  0.00    -0.037 A 
ATOM      7  H   UNL     1      -4.140  -1.325  -1.786  0.00  0.00    +0.062 HD
ATOM      8  H   UNL     1      -2.480  -3.088  -2.192  0.00  0.00    +0.062 HD
ATOM      9  H   UNL     1      -0.100  -2.713  -1.666  0.00  0.00    +0.064 HD
ATOM     10  H   UNL     1      -1.038   1.238  -0.244  0.00  0.00    +0.064 HD
ENDROOT
BRANCH   5  11
ATOM     11  N   UNL     1       0.996  -0.505  -0.643  0.00  0.00    -0.285 N 
ATOM     12  C   UNL     1       1.684   0.750  -0.766  0.00  0.00    +0.218 C 
ATOM     13  O   UNL     1       1.155   1.716  -1.381  0.00  0.00    -0.275 OA
ATOM     14  H   UNL     1       1.562  -1.347  -0.394  0.00  0.00    +0.155 HD
BRANCH  12  15
ATOM     15  C   UNL     1       3.082   0.889  -0.244  0.00  0.00    +0.037 C 
ATOM     16  H   UNL     1       3.179   0.301   0.692  0.00  0.00    +0.037 HD
ATOM     17  H   UNL     1       3.283   1.955   0.001  0.00  0.00    +0.037 HD
BRANCH  15  18
ATOM     18  C   UNL     1       4.095   0.404  -1.284  0.00  0.00    +0.005 C 
ATOM     19  H   UNL     1       3.889  -0.654  -1.563  0.00  0.00    +0.043 HD
ATOM     20  H   UNL     1       3.971   1.017  -2.206  0.00  0.00    +0.043 HD
BRANCH  18  21
ATOM     21  N   UNL     1       5.464   0.573  -0.776  0.00  0.00    -0.306 NA
ATOM     22  H   UNL     1       6.105   0.743  -1.587  0.00  0.00    +0.123 HD
BRANCH  21  23
ATOM     23  C   UNL     1       5.924  -0.610  -0.027  0.00  0.00    +0.052 C 
ATOM     24  C   UNL     1       6.438  -1.702  -0.942  0.00  0.00    -0.062 C 
ATOM     25  C   UNL     1       7.729  -1.952  -0.741  0.00  0.00    -0.056 C 
ATOM     26  C   UNL     1       8.204  -1.075   0.308  0.00  0.00    -0.020 A 
ATOM     27  C   UNL     1       9.478  -0.975   0.866  0.00  0.00    -0.054 A 
ATOM     28  C   UNL     1       9.681  -0.037   1.892  0.00  0.00    -0.061 A 
ATOM     29  C   UNL     1       8.616   0.773   2.337  0.00  0.00    -0.061 A 
ATOM     30  C   UNL     1       7.342   0.650   1.757  0.00  0.00    -0.056 A 
ATOM     31  C   UNL     1       7.165  -0.285   0.736  0.00  0.00    -0.020 A 
ATOM     32  H   UNL     1       5.147  -1.002   0.664  0.00  0.00    +0.055 HD
ATOM     33  H   UNL     1       5.835  -2.227  -1.671  0.00  0.00    +0.059 HD
ATOM     34  H   UNL     1       8.313  -2.692  -1.272  0.00  0.00    +0.062 HD
ATOM     35  H   UNL     1      10.289  -1.603   0.520  0.00  0.00    +0.062 HD
ATOM     36  H   UNL     1      10.659   0.063   2.345  0.00  0.00    +0.062 HD
ATOM     37  H   UNL     1       8.780   1.492   3.129  0.00  0.00    +0.062 HD
ATOM     38  H   UNL     1       6.518   1.266   2.094  0.00  0.00    +0.062 HD
ENDBRANCH  21  23
ENDBRANCH  18  21
ENDBRANCH  15  18
ENDBRANCH  12  15
ENDBRANCH   5  11
BRANCH   1  39
ATOM     39  C   UNL     1      -3.721   1.196  -0.719  0.00  0.00    +0.019 C 
ATOM     40  H   UNL     1      -3.188   2.071  -0.284  0.00  0.00    +0.040 HD
BRANCH  39  41
ATOM     41  C   UNL     1      -4.724   0.739   0.347  0.00  0.00    +0.087 A 
ATOM     42  C   UNL     1      -4.371   0.867   1.710  0.00  0.00    +0.292 A 
ATOM     43  O   UNL     1      -5.194   0.458   2.670  0.00  0.00    -0.425 OA
ATOM     44  C   UNL     1      -6.370  -0.101   2.424  0.00  0.00    +0.143 A 
ATOM     45  C   UNL     1      -7.181  -0.502   3.492  0.00  0.00    -0.019 A 
ATOM     46  C   UNL     1      -8.420  -1.100   3.247  0.00  0.00    -0.058 A 
ATOM     47  C   UNL     1      -8.854  -1.301   1.934  0.00  0.00    -0.061 A 
ATOM     48  C   UNL     1      -8.051  -0.904   0.860  0.00  0.00    -0.047 A 
ATOM     49  C   UNL     1      -6.802  -0.298   1.096  0.00  0.00    +0.064 A 
ATOM     50  C   UNL     1      -5.962   0.118   0.049  0.00  0.00    +0.200 A 
ATOM     51  O   UNL     1      -6.320  -0.072  -1.144  0.00  0.00    -0.287 OA
ATOM     52  H   UNL     1      -6.851  -0.351   4.512  0.00  0.00    +0.065 HD
ATOM     53  H   UNL     1      -9.044  -1.409   4.076  0.00  0.00    +0.062 HD
ATOM     54  H   UNL     1      -9.813  -1.766   1.748  0.00  0.00    +0.062 HD
ATOM     55  H   UNL     1      -8.410  -1.071  -0.148  0.00  0.00    +0.063 HD
BRANCH  42  56
ATOM     56  O   UNL     1      -3.146   1.420   2.073  0.00  0.00    -0.480 OA
ATOM     57  H   UNL     1      -2.885   1.510   3.047  0.00  0.00    +0.295 HD
ENDBRANCH  42  56
ENDBRANCH  39  41
BRANCH  39  58
ATOM     58  C   UNL     1      -4.352   1.742  -2.024  0.00  0.00    -0.045 C 
ATOM     59  H   UNL     1      -5.217   2.394  -1.772  0.00  0.00    +0.027 HD
ATOM     60  H   UNL     1      -4.714   0.915  -2.671  0.00  0.00    +0.027 HD
BRANCH  58  61
ATOM     61  C   UNL     1      -3.357   2.568  -2.841  0.00  0.00    -0.064 C 
ATOM     62  H   UNL     1      -2.487   1.946  -3.139  0.00  0.00    +0.023 HD
ATOM     63  H   UNL     1      -3.001   3.440  -2.253  0.00  0.00    +0.023 HD
ATOM     64  H   UNL     1      -3.853   2.942  -3.761  0.00  0.00    +0.023 HD
ENDBRANCH  58  61
ENDBRANCH  39  58
ENDBRANCH   1  39
TORSDOF 10
