REMARK  Name = 
REMARK  15 active torsions:
REMARK  status: ('A' for Active; 'I' for Inactive)
REMARK    1  A    between atoms: C_1  and  C_2
REMARK    2  A    between atoms: C_2  and  C_3
REMARK    3  A    between atoms: C_3  and  C_4
REMARK    4  A    between atoms: C_4  and  C_5
REMARK    5  A    between atoms: C_5  and  C_6
REMARK    6  A    between atoms: C_6  and  C_7
REMARK    7  A    between atoms: C_14  and  O_15
REMARK    8  A    between atoms: C_16  and  C_17
REMARK    9  A    between atoms: C_17  and  C_18
REMARK   10  A    between atoms: C_17  and  C_20
REMARK   11  A    between atoms: C_18  and  C_19
REMARK   12  A    between atoms: C_24  and  N_25
REMARK   13  A    between atoms: N_25  and  S_26
REMARK   14  A    between atoms: S_26  and  C_29
REMARK   15  A    between atoms: C_32  and  C_33
REMARK                            x       y       z     vdW  Elec       q    Type
REMARK                         _______ _______ _______ _____ _____    ______ ____
ROOT
ATOM      1  C   UNL     1      -2.317  -0.756   0.110  0.00  0.00    +0.260 C 
ATOM      2  O   UNL     1      -1.116  -0.619  -0.657  0.00  0.00    -0.421 OA
ATOM      3  C   UNL     1       0.143  -1.017  -0.184  0.00  0.00    +0.293 C 
ATOM      4  C   UNL     1       0.344  -1.218   1.135  0.00  0.00    +0.123 C 
ATOM      5  C   UNL     1      -0.784  -0.876   2.033  0.00  0.00    +0.346 C 
ATOM      6  O   UNL     1      -0.631  -0.845   3.283  0.00  0.00    -0.245 OA
ATOM      7  O   UNL     1      -2.024  -0.539   1.490  0.00  0.00    -0.419 OA
ENDROOT
BRANCH   1   8
ATOM      8  C   UNL     1      -3.309   0.332  -0.359  0.00  0.00    +0.029 C 
ATOM      9  H   UNL     1      -2.833   1.322  -0.184  0.00  0.00    +0.034 HD
ATOM     10  H   UNL     1      -3.477   0.249  -1.454  0.00  0.00    +0.034 HD
BRANCH   8  11
ATOM     11  C   UNL     1      -4.659   0.300   0.375  0.00  0.00    -0.021 C 
ATOM     12  H   UNL     1      -4.497   0.312   1.475  0.00  0.00    +0.032 HD
ATOM     13  H   UNL     1      -5.207  -0.634   0.129  0.00  0.00    +0.032 HD
BRANCH  11  14
ATOM     14  C   UNL     1      -5.502   1.481  -0.025  0.00  0.00    -0.047 A 
ATOM     15  C   UNL     1      -6.328   1.410  -1.160  0.00  0.00    -0.059 A 
ATOM     16  C   UNL     1      -7.084   2.519  -1.551  0.00  0.00    -0.062 A 
ATOM     17  C   UNL     1      -7.013   3.708  -0.820  0.00  0.00    -0.062 A 
ATOM     18  C   UNL     1      -6.183   3.792   0.302  0.00  0.00    -0.062 A 
ATOM     19  C   UNL     1      -5.425   2.684   0.696  0.00  0.00    -0.059 A 
ATOM     20  H   UNL     1      -6.384   0.497  -1.740  0.00  0.00    +0.062 HD
ATOM     21  H   UNL     1      -7.722   2.458  -2.423  0.00  0.00    +0.062 HD
ATOM     22  H   UNL     1      -7.598   4.567  -1.125  0.00  0.00    +0.062 HD
ATOM     23  H   UNL     1      -6.124   4.715   0.863  0.00  0.00    +0.062 HD
ATOM     24  H   UNL     1      -4.778   2.765   1.561  0.00  0.00    +0.062 HD
ENDBRANCH  11  14
ENDBRANCH   8  11
ENDBRANCH   1   8
BRANCH   1  25
ATOM     25  C   UNL     1      -2.857  -2.199  -0.058  0.00  0.00    +0.025 C 
ATOM     26  H   UNL     1      -2.073  -2.905   0.294  0.00  0.00    +0.034 HD
ATOM     27  H   UNL     1      -3.739  -2.356   0.599  0.00  0.00    +0.034 HD
BRANCH  25  28
ATOM     28  C   UNL     1      -3.222  -2.557  -1.508  0.00  0.00    -0.049 C 
ATOM     29  H   UNL     1      -2.364  -2.344  -2.181  0.00  0.00    +0.027 HD
ATOM     30  H   UNL     1      -4.094  -1.956  -1.841  0.00  0.00    +0.027 HD
BRANCH  28  31
ATOM     31  C   UNL     1      -3.587  -4.034  -1.633  0.00  0.00    -0.065 C 
ATOM     32  H   UNL     1      -4.453  -4.274  -0.981  0.00  0.00    +0.023 HD
ATOM     33  H   UNL     1      -3.859  -4.261  -2.685  0.00  0.00    +0.023 HD
ATOM     34  H   UNL     1      -2.723  -4.671  -1.345  0.00  0.00    +0.023 HD
ENDBRANCH  28  31
ENDBRANCH  25  28
ENDBRANCH   1  25
BRANCH   4  35
ATOM     35  C   UNL     1       1.680  -1.635   1.762  0.00  0.00    +0.023 C 
ATOM     36  H   UNL     1       1.380  -2.215   2.664  0.00  0.00    +0.040 HD
BRANCH  35  37
ATOM     37  C   UNL     1       2.474  -0.439   2.269  0.00  0.00    -0.038 A 
ATOM     38  C   UNL     1       3.144  -0.522   3.501  0.00  0.00    -0.058 A 
ATOM     39  C   UNL     1       3.900   0.553   3.970  0.00  0.00    -0.060 A 
ATOM     40  C   UNL     1       4.011   1.718   3.210  0.00  0.00    -0.039 A 
ATOM     41  C   UNL     1       3.375   1.818   1.965  0.00  0.00    +0.048 A 
ATOM     42  C   UNL     1       2.602   0.736   1.503  0.00  0.00    -0.036 A 
ATOM     43  H   UNL     1       3.082  -1.422   4.100  0.00  0.00    +0.062 HD
ATOM     44  H   UNL     1       4.406   0.480   4.924  0.00  0.00    +0.062 HD
ATOM     45  H   UNL     1       4.607   2.539   3.586  0.00  0.00    +0.064 HD
ATOM     46  H   UNL     1       2.101   0.800   0.551  0.00  0.00    +0.064 HD
BRANCH  41  47
ATOM     47  N   UNL     1       3.531   3.023   1.193  0.00  0.00    -0.216 N 
ATOM     48  H   UNL     1       4.019   3.841   1.623  0.00  0.00    +0.174 HD
BRANCH  47  49
ATOM     49  S   UNL     1       3.091   3.163  -0.480  0.00  0.00    +0.072 S 
ATOM     50  O   UNL     1       1.592   3.133  -0.598  0.00  0.00    -0.150 OA
ATOM     51  O   UNL     1       3.598   4.471  -1.019  0.00  0.00    -0.150 OA
BRANCH  49  52
ATOM     52  C   UNL     1       3.814   1.851  -1.406  0.00  0.00    +0.109 A 
ATOM     53  C   UNL     1       3.103   1.242  -2.450  0.00  0.00    -0.034 A 
ATOM     54  C   UNL     1       3.673   0.184  -3.165  0.00  0.00    -0.042 A 
ATOM     55  C   UNL     1       4.958  -0.270  -2.842  0.00  0.00    +0.052 A 
ATOM     56  C   UNL     1       5.673   0.343  -1.805  0.00  0.00    -0.042 A 
ATOM     57  C   UNL     1       5.103   1.400  -1.090  0.00  0.00    -0.034 A 
ATOM     58  H   UNL     1       2.107   1.579  -2.706  0.00  0.00    +0.064 HD
ATOM     59  H   UNL     1       3.110  -0.283  -3.964  0.00  0.00    +0.063 HD
ATOM     60  H   UNL     1       6.667  -0.001  -1.545  0.00  0.00    +0.063 HD
ATOM     61  H   UNL     1       5.663   1.863  -0.287  0.00  0.00    +0.064 HD
BRANCH  55  62
ATOM     62  C   UNL     1       5.538  -1.369  -3.567  0.00  0.00    +0.099 C 
ATOM     63  N   UNL     1       6.005  -2.253  -4.151  0.00  0.00    -0.191 NA
ENDBRANCH  55  62
ENDBRANCH  49  52
ENDBRANCH  47  49
ENDBRANCH  41  47
ENDBRANCH  35  37
BRANCH  35  64
ATOM     64  C   UNL     1       2.529  -2.658   0.947  0.00  0.00    -0.045 C 
ATOM     65  H   UNL     1       1.890  -3.200   0.218  0.00  0.00    +0.027 HD
ATOM     66  H   UNL     1       2.910  -3.438   1.644  0.00  0.00    +0.027 HD
BRANCH  64  67
ATOM     67  C   UNL     1       3.756  -2.079   0.229  0.00  0.00    -0.064 C 
ATOM     68  H   UNL     1       4.205  -2.856  -0.424  0.00  0.00    +0.023 HD
ATOM     69  H   UNL     1       4.522  -1.765   0.969  0.00  0.00    +0.023 HD
ATOM     70  H   UNL     1       3.491  -1.207  -0.397  0.00  0.00    +0.023 HD
ENDBRANCH  64  67
ENDBRANCH  35  64
ENDBRANCH   4  35
BRANCH   3  71
ATOM     71  O   UNL     1       1.168  -1.167  -1.108  0.00  0.00    -0.480 OA
ATOM     72  H   UNL     1       1.000  -1.010  -2.094  0.00  0.00    +0.295 HD
ENDBRANCH   3  71
TORSDOF 15
