REMARK  Name = 
REMARK  16 active torsions:
REMARK  status: ('A' for Active; 'I' for Inactive)
REMARK    1  A    between atoms: C_1  and  C_2
REMARK    2  A    between atoms: C_2  and  C_3
REMARK    3  A    between atoms: C_2  and  C_4
REMARK    4  A    between atoms: C_4  and  C_5
REMARK    5  A    between atoms: C_5  and  C_6
REMARK    6  A    between atoms: C_6  and  C_7
REMARK    7  A    between atoms: C_19  and  S_20
REMARK    8  A    between atoms: S_20  and  C_21
REMARK    9  A    between atoms: C_23  and  C_24
REMARK   10  A    between atoms: C_25  and  C_26
REMARK   11  A    between atoms: C_26  and  O_27
REMARK   12  A    between atoms: C_29  and  C_30
REMARK   13  A    between atoms: C_30  and  C_31
REMARK   14  A    between atoms: C_30  and  C_32
REMARK   15  A    between atoms: C_30  and  C_33
REMARK   16  A    between atoms: C_34  and  O_35
REMARK                            x       y       z     vdW  Elec       q    Type
REMARK                         _______ _______ _______ _____ _____    ______ ____
ROOT
ATOM      1  C   UNL     1       1.567  -1.353  -0.418  0.00  0.00    +0.123 C 
ATOM      2  C   UNL     1       0.646  -0.499  -1.334  0.00  0.00    +0.051 C 
ATOM      3  C   UNL     1       0.107   0.662  -0.559  0.00  0.00    +0.180 C 
ATOM      4  O   UNL     1       0.090   1.812  -1.071  0.00  0.00    -0.291 OA
ATOM      5  C   UNL     1      -0.382   0.432   0.814  0.00  0.00    +0.135 C 
ATOM      6  C   UNL     1       0.066  -0.659   1.471  0.00  0.00    +0.297 C 
ATOM      7  O   UNL     1       0.872  -1.605   0.814  0.00  0.00    -0.456 OA
ATOM      8  H   UNL     1      -0.240  -1.076  -1.661  0.00  0.00    +0.038 HD
ATOM      9  H   UNL     1       1.170  -0.161  -2.251  0.00  0.00    +0.038 HD
ENDROOT
BRANCH   1  10
ATOM     10  C   UNL     1       2.861  -0.545  -0.057  0.00  0.00    -0.006 C 
ATOM     11  H   UNL     1       3.419  -1.086   0.738  0.00  0.00    +0.031 HD
ATOM     12  H   UNL     1       2.574   0.423   0.408  0.00  0.00    +0.031 HD
BRANCH  10  13
ATOM     13  C   UNL     1       3.811  -0.247  -1.231  0.00  0.00    -0.000 C 
ATOM     14  H   UNL     1       3.313   0.399  -1.983  0.00  0.00    +0.033 HD
ATOM     15  H   UNL     1       4.133  -1.181  -1.733  0.00  0.00    +0.033 HD
BRANCH  13  16
ATOM     16  C   UNL     1       5.029   0.465  -0.737  0.00  0.00    +0.080 A 
ATOM     17  N   UNL     1       5.097   1.812  -0.600  0.00  0.00    -0.244 NA
ATOM     18  C   UNL     1       6.290   2.185  -0.070  0.00  0.00    +0.078 A 
ATOM     19  C   UNL     1       6.660   3.507   0.186  0.00  0.00    -0.035 A 
ATOM     20  C   UNL     1       7.925   3.757   0.745  0.00  0.00    -0.060 A 
ATOM     21  C   UNL     1       8.799   2.691   1.041  0.00  0.00    -0.061 A 
ATOM     22  C   UNL     1       8.414   1.366   0.781  0.00  0.00    -0.046 A 
ATOM     23  C   UNL     1       7.157   1.145   0.226  0.00  0.00    +0.039 A 
ATOM     24  S   UNL     1       6.429  -0.311  -0.181  0.00  0.00    -0.072 S 
ATOM     25  H   UNL     1       5.987   4.324  -0.040  0.00  0.00    +0.064 HD
ATOM     26  H   UNL     1       8.230   4.775   0.950  0.00  0.00    +0.062 HD
ATOM     27  H   UNL     1       9.770   2.895   1.472  0.00  0.00    +0.062 HD
ATOM     28  H   UNL     1       9.077   0.540   1.008  0.00  0.00    +0.063 HD
ENDBRANCH  13  16
ENDBRANCH  10  13
ENDBRANCH   1  10
BRANCH   6  29
ATOM     29  O   UNL     1      -0.217  -0.881   2.818  0.00  0.00    -0.479 OA
ATOM     30  H   UNL     1      -0.650  -0.190   3.414  0.00  0.00    +0.295 HD
ENDBRANCH   6  29
BRANCH   1  31
ATOM     31  C   UNL     1       1.901  -2.740  -1.087  0.00  0.00    -0.006 C 
ATOM     32  H   UNL     1       2.353  -2.560  -2.086  0.00  0.00    +0.033 HD
BRANCH  31  33
ATOM     33  C   UNL     1       2.909  -3.565  -0.261  0.00  0.00    -0.059 C 
ATOM     34  H   UNL     1       3.057  -4.569  -0.712  0.00  0.00    +0.023 HD
ATOM     35  H   UNL     1       3.907  -3.083  -0.244  0.00  0.00    +0.023 HD
ATOM     36  H   UNL     1       2.548  -3.696   0.782  0.00  0.00    +0.023 HD
ENDBRANCH  31  33
BRANCH  31  37
ATOM     37  C   UNL     1       0.643  -3.604  -1.325  0.00  0.00    -0.059 C 
ATOM     38  H   UNL     1       0.928  -4.624  -1.663  0.00  0.00    +0.023 HD
ATOM     39  H   UNL     1       0.041  -3.702  -0.397  0.00  0.00    +0.023 HD
ATOM     40  H   UNL     1       0.013  -3.185  -2.134  0.00  0.00    +0.023 HD
ENDBRANCH  31  37
ENDBRANCH   1  31
BRANCH   5  41
ATOM     41  S   UNL     1      -1.508   1.627   1.581  0.00  0.00    -0.079 S 
BRANCH  41  42
ATOM     42  C   UNL     1      -2.939   1.229   0.539  0.00  0.00    +0.017 A 
ATOM     43  C   UNL     1      -2.961   1.881  -0.703  0.00  0.00    -0.044 A 
ATOM     44  C   UNL     1      -3.856   1.514  -1.711  0.00  0.00    -0.044 A 
ATOM     45  C   UNL     1      -4.730   0.435  -1.486  0.00  0.00    -0.019 A 
ATOM     46  C   UNL     1      -4.795  -0.138  -0.208  0.00  0.00    -0.051 A 
ATOM     47  C   UNL     1      -3.989   0.311   0.867  0.00  0.00    -0.028 A 
ATOM     48  H   UNL     1      -2.247   2.670  -0.896  0.00  0.00    +0.063 HD
ATOM     49  H   UNL     1      -5.501  -0.941  -0.065  0.00  0.00    +0.062 HD
BRANCH  44  50
ATOM     50  C   UNL     1      -3.791   2.219  -3.041  0.00  0.00    -0.039 C 
ATOM     51  H   UNL     1      -3.226   3.172  -2.969  0.00  0.00    +0.028 HD
ATOM     52  H   UNL     1      -3.286   1.567  -3.784  0.00  0.00    +0.028 HD
ATOM     53  H   UNL     1      -4.813   2.465  -3.399  0.00  0.00    +0.028 HD
ENDBRANCH  44  50
BRANCH  45  54
ATOM     54  C   UNL     1      -5.666  -0.070  -2.561  0.00  0.00    +0.069 C 
ATOM     55  H   UNL     1      -5.157  -0.068  -3.547  0.00  0.00    +0.061 HD
ATOM     56  H   UNL     1      -5.961  -1.127  -2.370  0.00  0.00    +0.061 HD
BRANCH  54  57
ATOM     57  O   UNL     1      -6.804   0.744  -2.632  0.00  0.00    -0.390 OA
ATOM     58  H   UNL     1      -7.364   0.518  -1.843  0.00  0.00    +0.210 HD
ENDBRANCH  54  57
ENDBRANCH  45  54
BRANCH  47  59
ATOM     59  C   UNL     1      -4.292  -0.242   2.291  0.00  0.00    -0.012 C 
BRANCH  59  60
ATOM     60  C   UNL     1      -5.824  -0.418   2.505  0.00  0.00    -0.056 C 
ATOM     61  H   UNL     1      -6.063  -0.661   3.563  0.00  0.00    +0.024 HD
ATOM     62  H   UNL     1      -6.363   0.516   2.234  0.00  0.00    +0.024 HD
ATOM     63  H   UNL     1      -6.244  -1.261   1.920  0.00  0.00    +0.024 HD
ENDBRANCH  59  60
BRANCH  59  64
ATOM     64  C   UNL     1      -3.821   0.702   3.427  0.00  0.00    -0.056 C 
ATOM     65  H   UNL     1      -4.317   0.466   4.393  0.00  0.00    +0.024 HD
ATOM     66  H   UNL     1      -2.747   0.588   3.645  0.00  0.00    +0.024 HD
ATOM     67  H   UNL     1      -4.052   1.761   3.181  0.00  0.00    +0.024 HD
ENDBRANCH  59  64
BRANCH  59  68
ATOM     68  C   UNL     1      -3.624  -1.619   2.445  0.00  0.00    -0.056 C 
ATOM     69  H   UNL     1      -3.768  -2.015   3.473  0.00  0.00    +0.024 HD
ATOM     70  H   UNL     1      -2.541  -1.551   2.239  0.00  0.00    +0.024 HD
ATOM     71  H   UNL     1      -4.055  -2.347   1.724  0.00  0.00    +0.024 HD
ENDBRANCH  59  68
ENDBRANCH  47  59
ENDBRANCH  41  42
ENDBRANCH   5  41
TORSDOF 16
