REMARK  Name = 
REMARK  14 active torsions:
REMARK  status: ('A' for Active; 'I' for Inactive)
REMARK    1  A    between atoms: C_1  and  C_2
REMARK    2  A    between atoms: C_2  and  C_3
REMARK    3  A    between atoms: C_2  and  C_4
REMARK    4  A    between atoms: C_2  and  N_5
REMARK    5  A    between atoms: C_6  and  C_8
REMARK    6  A    between atoms: C_13  and  C_14
REMARK    7  A    between atoms: C_14  and  C_15
REMARK    8  A    between atoms: C_15  and  O_16
REMARK    9  A    between atoms: C_15  and  C_17
REMARK   10  A    between atoms: C_17  and  C_18
REMARK   11  A    between atoms: C_17  and  N_30
REMARK   12  A    between atoms: C_18  and  S_19
REMARK   13  A    between atoms: S_19  and  C_20
REMARK   14  A    between atoms: C_31  and  C_33
REMARK                            x       y       z     vdW  Elec       q    Type
REMARK                         _______ _______ _______ _____ _____    ______ ____
ROOT
ATOM      1  C   UNL     1       0.098  -1.534   0.395  0.00  0.00    +0.059 C 
ATOM      2  H   UNL     1       0.787  -1.465   1.265  0.00  0.00    +0.053 HD
ENDROOT
BRANCH   1   3
ATOM      3  N   UNL     1      -0.661  -0.282   0.307  0.00  0.00    -0.305 N 
ATOM      4  C   UNL     1      -0.712   0.681   1.372  0.00  0.00    +0.245 C 
ATOM      5  O   UNL     1       0.021   0.550   2.390  0.00  0.00    -0.270 OA
ATOM      6  H   UNL     1      -1.228  -0.095  -0.548  0.00  0.00    +0.149 HD
BRANCH   4   7
ATOM      7  C   UNL     1      -1.649   1.818   1.293  0.00  0.00    +0.047 A 
ATOM      8  C   UNL     1      -3.006   1.541   1.079  0.00  0.00    -0.031 A 
ATOM      9  C   UNL     1      -3.932   2.582   1.027  0.00  0.00    +0.029 A 
ATOM     10  N   UNL     1      -3.524   3.866   1.183  0.00  0.00    -0.255 NA
ATOM     11  C   UNL     1      -2.219   4.185   1.387  0.00  0.00    +0.072 A 
ATOM     12  C   UNL     1      -1.850   5.528   1.530  0.00  0.00    -0.036 A 
ATOM     13  C   UNL     1      -0.510   5.871   1.720  0.00  0.00    -0.060 A 
ATOM     14  C   UNL     1       0.469   4.876   1.761  0.00  0.00    -0.061 A 
ATOM     15  C   UNL     1       0.114   3.531   1.623  0.00  0.00    -0.052 A 
ATOM     16  C   UNL     1      -1.236   3.164   1.445  0.00  0.00    +0.012 A 
ATOM     17  H   UNL     1      -3.347   0.520   0.981  0.00  0.00    +0.064 HD
ATOM     18  H   UNL     1      -4.980   2.366   0.871  0.00  0.00    +0.083 HD
ATOM     19  H   UNL     1      -2.600   6.308   1.489  0.00  0.00    +0.064 HD
ATOM     20  H   UNL     1      -0.228   6.910   1.827  0.00  0.00    +0.062 HD
ATOM     21  H   UNL     1       1.508   5.148   1.898  0.00  0.00    +0.062 HD
ATOM     22  H   UNL     1       0.903   2.793   1.643  0.00  0.00    +0.062 HD
ENDBRANCH   4   7
ENDBRANCH   1   3
BRANCH   1  23
ATOM     23  C   UNL     1      -0.847  -2.720   0.710  0.00  0.00    +0.019 C 
ATOM     24  H   UNL     1      -0.236  -3.550   1.124  0.00  0.00    +0.040 HD
ATOM     25  H   UNL     1      -1.552  -2.429   1.518  0.00  0.00    +0.040 HD
BRANCH  23  26
ATOM     26  S   UNL     1      -1.773  -3.414  -0.716  0.00  0.00    -0.123 S 
BRANCH  26  27
ATOM     27  C   UNL     1      -3.182  -2.303  -0.635  0.00  0.00    +0.009 A 
ATOM     28  C   UNL     1      -3.339  -1.310  -1.608  0.00  0.00    -0.048 A 
ATOM     29  C   UNL     1      -4.458  -0.472  -1.589  0.00  0.00    -0.053 A 
ATOM     30  C   UNL     1      -5.438  -0.629  -0.598  0.00  0.00    -0.018 A 
ATOM     31  C   UNL     1      -6.559   0.214  -0.559  0.00  0.00    -0.054 A 
ATOM     32  C   UNL     1      -7.523   0.053   0.440  0.00  0.00    -0.061 A 
ATOM     33  C   UNL     1      -7.378  -0.949   1.403  0.00  0.00    -0.061 A 
ATOM     34  C   UNL     1      -6.267  -1.797   1.375  0.00  0.00    -0.054 A 
ATOM     35  C   UNL     1      -5.290  -1.644   0.379  0.00  0.00    -0.017 A 
ATOM     36  C   UNL     1      -4.165  -2.484   0.345  0.00  0.00    -0.041 A 
ATOM     37  H   UNL     1      -2.596  -1.187  -2.385  0.00  0.00    +0.063 HD
ATOM     38  H   UNL     1      -4.556   0.296  -2.346  0.00  0.00    +0.062 HD
ATOM     39  H   UNL     1      -6.686   0.998  -1.296  0.00  0.00    +0.062 HD
ATOM     40  H   UNL     1      -8.384   0.708   0.468  0.00  0.00    +0.062 HD
ATOM     41  H   UNL     1      -8.128  -1.068   2.174  0.00  0.00    +0.062 HD
ATOM     42  H   UNL     1      -6.171  -2.568   2.130  0.00  0.00    +0.062 HD
ATOM     43  H   UNL     1      -4.048  -3.271   1.080  0.00  0.00    +0.063 HD
ENDBRANCH  26  27
ENDBRANCH  23  26
ENDBRANCH   1  23
BRANCH   1  44
ATOM     44  C   UNL     1       1.015  -1.703  -0.846  0.00  0.00    +0.078 C 
ATOM     45  H   UNL     1       1.697  -0.820  -0.860  0.00  0.00    +0.062 HD
BRANCH  44  46
ATOM     46  C   UNL     1       1.890  -2.967  -0.750  0.00  0.00    +0.001 C 
ATOM     47  H   UNL     1       2.343  -3.049   0.259  0.00  0.00    +0.034 HD
ATOM     48  H   UNL     1       1.254  -3.871  -0.871  0.00  0.00    +0.034 HD
BRANCH  46  54
ATOM     49  C   UNL     1       4.140  -2.151  -1.678  0.00  0.00    +0.040 A 
ATOM     50  C   UNL     1       5.064  -2.098  -2.733  0.00  0.00    -0.049 A 
ATOM     51  C   UNL     1       4.858  -2.844  -3.894  0.00  0.00    -0.061 A 
ATOM     52  C   UNL     1       3.720  -3.640  -4.021  0.00  0.00    -0.061 A 
ATOM     53  C   UNL     1       2.782  -3.691  -2.987  0.00  0.00    -0.058 A 
ATOM     54  C   UNL     1       2.978  -2.957  -1.804  0.00  0.00    -0.033 A 
ATOM     55  H   UNL     1       5.953  -1.483  -2.653  0.00  0.00    +0.063 HD
ATOM     56  H   UNL     1       5.579  -2.801  -4.700  0.00  0.00    +0.062 HD
ATOM     57  H   UNL     1       3.558  -4.212  -4.926  0.00  0.00    +0.062 HD
ATOM     58  H   UNL     1       1.893  -4.296  -3.117  0.00  0.00    +0.062 HD
BRANCH  49  60
ATOM     59  N   UNL     1       4.523   0.094  -0.595  0.00  0.00    -0.307 N 
ATOM     60  C   UNL     1       4.396  -1.335  -0.476  0.00  0.00    +0.245 C 
ATOM     61  O   UNL     1       4.504  -1.901   0.644  0.00  0.00    -0.270 OA
ATOM     62  H   UNL     1       4.516   0.485  -1.565  0.00  0.00    +0.150 HD
BRANCH  59  63
ATOM     63  C   UNL     1       4.548   1.035   0.542  0.00  0.00    +0.026 C 
BRANCH  63  64
ATOM     64  C   UNL     1       3.280   0.865   1.402  0.00  0.00    -0.044 C 
ATOM     65  H   UNL     1       3.248  -0.130   1.891  0.00  0.00    +0.025 HD
ATOM     66  H   UNL     1       2.374   0.971   0.769  0.00  0.00    +0.025 HD
ATOM     67  H   UNL     1       3.244   1.634   2.203  0.00  0.00    +0.025 HD
ENDBRANCH  63  64
BRANCH  63  68
ATOM     68  C   UNL     1       4.578   2.479  -0.001  0.00  0.00    -0.044 C 
ATOM     69  H   UNL     1       3.679   2.677  -0.624  0.00  0.00    +0.025 HD
ATOM     70  H   UNL     1       4.596   3.216   0.831  0.00  0.00    +0.025 HD
ATOM     71  H   UNL     1       5.480   2.638  -0.631  0.00  0.00    +0.025 HD
ENDBRANCH  63  68
BRANCH  63  72
ATOM     72  C   UNL     1       5.810   0.806   1.395  0.00  0.00    -0.044 C 
ATOM     73  H   UNL     1       5.892   1.581   2.188  0.00  0.00    +0.025 HD
ATOM     74  H   UNL     1       5.790  -0.183   1.896  0.00  0.00    +0.025 HD
ATOM     75  H   UNL     1       6.719   0.857   0.758  0.00  0.00    +0.025 HD
ENDBRANCH  63  72
ENDBRANCH  59  63
ENDBRANCH  49  60
ENDBRANCH  46  54
ENDBRANCH  44  46
BRANCH  44  76
ATOM     76  O   UNL     1       0.269  -1.738  -2.037  0.00  0.00    -0.390 OA
ATOM     77  H   UNL     1       0.186  -0.804  -2.363  0.00  0.00    +0.210 HD
ENDBRANCH  44  76
ENDBRANCH   1  44
TORSDOF 14
