REMARK  Name = 
REMARK  10 active torsions:
REMARK  status: ('A' for Active; 'I' for Inactive)
REMARK    1  A    between atoms: C_1  and  C_2
REMARK    2  A    between atoms: C_2  and  C_3
REMARK    3  A    between atoms: C_3  and  C_4
REMARK    4  A    between atoms: C_3  and  C_25
REMARK    5  A    between atoms: C_8  and  N_9
REMARK    6  A    between atoms: C_10  and  C_12
REMARK    7  A    between atoms: C_12  and  C_13
REMARK    8  A    between atoms: C_13  and  N_14
REMARK    9  A    between atoms: N_14  and  C_15
REMARK   10  A    between atoms: C_26  and  O_27
REMARK                            x       y       z     vdW  Elec       q    Type
REMARK                         _______ _______ _______ _____ _____    ______ ____
ROOT
ATOM      1  C   UNL     1       2.709   1.191  -0.574  0.00  0.00    -0.038 A 
ATOM      2  C   UNL     1       2.981   2.198   0.370  0.00  0.00    -0.058 A 
ATOM      3  C   UNL     1       1.937   2.894   0.981  0.00  0.00    -0.060 A 
ATOM      4  C   UNL     1       0.611   2.603   0.655  0.00  0.00    -0.040 A 
ATOM      5  C   UNL     1       0.318   1.616  -0.301  0.00  0.00    +0.034 A 
ATOM      6  C   UNL     1       1.370   0.903  -0.895  0.00  0.00    -0.037 A 
ATOM      7  H   UNL     1       3.998   2.442   0.641  0.00  0.00    +0.062 HD
ATOM      8  H   UNL     1       2.156   3.656   1.718  0.00  0.00    +0.062 HD
ATOM      9  H   UNL     1      -0.181   3.130   1.170  0.00  0.00    +0.064 HD
ATOM     10  H   UNL     1       1.140   0.129  -1.617  0.00  0.00    +0.064 HD
ENDROOT
BRANCH   5  11
ATOM     11  N   UNL     1      -1.039   1.278  -0.636  0.00  0.00    -0.285 N 
ATOM     12  C   UNL     1      -2.117   2.226  -0.688  0.00  0.00    +0.218 C 
ATOM     13  O   UNL     1      -1.887   3.465  -0.651  0.00  0.00    -0.275 OA
ATOM     14  H   UNL     1      -1.241   0.296  -0.932  0.00  0.00    +0.155 HD
BRANCH  12  15
ATOM     15  C   UNL     1      -3.532   1.742  -0.793  0.00  0.00    +0.037 C 
ATOM     16  H   UNL     1      -4.179   2.566  -1.168  0.00  0.00    +0.037 HD
ATOM     17  H   UNL     1      -3.576   0.914  -1.530  0.00  0.00    +0.037 HD
BRANCH  15  18
ATOM     18  C   UNL     1      -4.038   1.271   0.581  0.00  0.00    +0.005 C 
ATOM     19  H   UNL     1      -4.006   2.131   1.284  0.00  0.00    +0.043 HD
ATOM     20  H   UNL     1      -3.356   0.494   0.992  0.00  0.00    +0.043 HD
BRANCH  18  21
ATOM     21  N   UNL     1      -5.425   0.779   0.525  0.00  0.00    -0.306 NA
ATOM     22  H   UNL     1      -5.976   1.383  -0.130  0.00  0.00    +0.123 HD
BRANCH  21  23
ATOM     23  C   UNL     1      -5.502  -0.628   0.097  0.00  0.00    +0.052 C 
ATOM     24  C   UNL     1      -5.228  -1.554   1.260  0.00  0.00    -0.062 C 
ATOM     25  C   UNL     1      -6.279  -2.314   1.556  0.00  0.00    -0.056 C 
ATOM     26  C   UNL     1      -7.345  -1.994   0.633  0.00  0.00    -0.020 A 
ATOM     27  C   UNL     1      -8.622  -2.546   0.534  0.00  0.00    -0.054 A 
ATOM     28  C   UNL     1      -9.470  -2.077  -0.483  0.00  0.00    -0.061 A 
ATOM     29  C   UNL     1      -9.026  -1.081  -1.377  0.00  0.00    -0.061 A 
ATOM     30  C   UNL     1      -7.732  -0.546  -1.256  0.00  0.00    -0.056 A 
ATOM     31  C   UNL     1      -6.910  -1.017  -0.229  0.00  0.00    -0.020 A 
ATOM     32  H   UNL     1      -4.833  -0.856  -0.762  0.00  0.00    +0.055 HD
ATOM     33  H   UNL     1      -4.290  -1.607   1.796  0.00  0.00    +0.059 HD
ATOM     34  H   UNL     1      -6.315  -3.052   2.346  0.00  0.00    +0.062 HD
ATOM     35  H   UNL     1      -8.950  -3.317   1.218  0.00  0.00    +0.062 HD
ATOM     36  H   UNL     1     -10.467  -2.487  -0.585  0.00  0.00    +0.062 HD
ATOM     37  H   UNL     1      -9.683  -0.730  -2.162  0.00  0.00    +0.062 HD
ATOM     38  H   UNL     1      -7.382   0.213  -1.944  0.00  0.00    +0.062 HD
ENDBRANCH  21  23
ENDBRANCH  18  21
ENDBRANCH  15  18
ENDBRANCH  12  15
ENDBRANCH   5  11
BRANCH   1  39
ATOM     39  C   UNL     1       3.833   0.412  -1.236  0.00  0.00    +0.019 C 
ATOM     40  H   UNL     1       3.386  -0.322  -1.944  0.00  0.00    +0.040 HD
BRANCH  39  41
ATOM     41  C   UNL     1       4.595  -0.415  -0.194  0.00  0.00    +0.087 A 
ATOM     42  C   UNL     1       4.085  -1.680   0.176  0.00  0.00    +0.292 A 
ATOM     43  O   UNL     1       4.694  -2.421   1.096  0.00  0.00    -0.425 OA
ATOM     44  C   UNL     1       5.790  -2.028   1.730  0.00  0.00    +0.143 A 
ATOM     45  C   UNL     1       6.374  -2.868   2.685  0.00  0.00    -0.019 A 
ATOM     46  C   UNL     1       7.524  -2.463   3.367  0.00  0.00    -0.058 A 
ATOM     47  C   UNL     1       8.095  -1.216   3.100  0.00  0.00    -0.061 A 
ATOM     48  C   UNL     1       7.519  -0.369   2.148  0.00  0.00    -0.047 A 
ATOM     49  C   UNL     1       6.361  -0.769   1.453  0.00  0.00    +0.064 A 
ATOM     50  C   UNL     1       5.748   0.048   0.488  0.00  0.00    +0.200 A 
ATOM     51  O   UNL     1       6.231   1.187   0.243  0.00  0.00    -0.287 OA
ATOM     52  H   UNL     1       5.936  -3.835   2.899  0.00  0.00    +0.065 HD
ATOM     53  H   UNL     1       7.973  -3.116   4.105  0.00  0.00    +0.062 HD
ATOM     54  H   UNL     1       8.985  -0.905   3.631  0.00  0.00    +0.062 HD
ATOM     55  H   UNL     1       7.980   0.593   1.959  0.00  0.00    +0.063 HD
BRANCH  42  56
ATOM     56  O   UNL     1       2.925  -2.174  -0.416  0.00  0.00    -0.480 OA
ATOM     57  H   UNL     1       2.553  -3.078  -0.152  0.00  0.00    +0.295 HD
ENDBRANCH  42  56
ENDBRANCH  39  41
BRANCH  39  58
ATOM     58  C   UNL     1       4.715   1.318  -2.129  0.00  0.00    -0.045 C 
ATOM     59  H   UNL     1       5.031   2.233  -1.586  0.00  0.00    +0.027 HD
ATOM     60  H   UNL     1       5.627   0.760  -2.435  0.00  0.00    +0.027 HD
BRANCH  58  61
ATOM     61  C   UNL     1       3.984   1.762  -3.397  0.00  0.00    -0.064 C 
ATOM     62  H   UNL     1       4.655   2.403  -4.008  0.00  0.00    +0.023 HD
ATOM     63  H   UNL     1       3.077   2.349  -3.137  0.00  0.00    +0.023 HD
ATOM     64  H   UNL     1       3.689   0.881  -4.005  0.00  0.00    +0.023 HD
ENDBRANCH  58  61
ENDBRANCH  39  58
ENDBRANCH   1  39
TORSDOF 10
