REMARK  Name = 
REMARK  10 active torsions:
REMARK  status: ('A' for Active; 'I' for Inactive)
REMARK    1  A    between atoms: C_1  and  C_2
REMARK    2  A    between atoms: C_2  and  C_3
REMARK    3  A    between atoms: C_3  and  C_4
REMARK    4  A    between atoms: C_3  and  C_25
REMARK    5  A    between atoms: C_8  and  N_9
REMARK    6  A    between atoms: C_10  and  C_12
REMARK    7  A    between atoms: C_12  and  C_13
REMARK    8  A    between atoms: C_13  and  N_14
REMARK    9  A    between atoms: N_14  and  C_15
REMARK   10  A    between atoms: C_26  and  O_27
REMARK                            x       y       z     vdW  Elec       q    Type
REMARK                         _______ _______ _______ _____ _____    ______ ____
ROOT
ATOM      1  C   UNL     1      -2.851  -1.581  -0.485  0.00  0.00    -0.038 A 
ATOM      2  C   UNL     1      -2.890  -1.683  -1.887  0.00  0.00    -0.058 A 
ATOM      3  C   UNL     1      -1.714  -1.830  -2.623  0.00  0.00    -0.060 A 
ATOM      4  C   UNL     1      -0.480  -1.880  -1.975  0.00  0.00    -0.040 A 
ATOM      5  C   UNL     1      -0.413  -1.794  -0.574  0.00  0.00    +0.034 A 
ATOM      6  C   UNL     1      -1.596  -1.623   0.161  0.00  0.00    -0.037 A 
ATOM      7  H   UNL     1      -3.837  -1.637  -2.411  0.00  0.00    +0.062 HD
ATOM      8  H   UNL     1      -1.759  -1.893  -3.703  0.00  0.00    +0.062 HD
ATOM      9  H   UNL     1       0.420  -1.955  -2.570  0.00  0.00    +0.064 HD
ATOM     10  H   UNL     1      -1.524  -1.528   1.235  0.00  0.00    +0.064 HD
ENDROOT
BRANCH   5  11
ATOM     11  N   UNL     1       0.848  -1.806   0.116  0.00  0.00    -0.285 N 
ATOM     12  C   UNL     1       1.986  -2.580  -0.297  0.00  0.00    +0.218 C 
ATOM     13  O   UNL     1       1.869  -3.474  -1.179  0.00  0.00    -0.275 OA
ATOM     14  H   UNL     1       0.922  -1.276   1.014  0.00  0.00    +0.155 HD
BRANCH  12  15
ATOM     15  C   UNL     1       3.327  -2.329   0.324  0.00  0.00    +0.037 C 
ATOM     16  H   UNL     1       3.204  -2.180   1.418  0.00  0.00    +0.037 HD
ATOM     17  H   UNL     1       3.981  -3.215   0.170  0.00  0.00    +0.037 HD
BRANCH  15  18
ATOM     18  C   UNL     1       3.980  -1.092  -0.295  0.00  0.00    +0.005 C 
ATOM     19  H   UNL     1       3.305  -0.222  -0.141  0.00  0.00    +0.043 HD
ATOM     20  H   UNL     1       4.113  -1.252  -1.389  0.00  0.00    +0.043 HD
BRANCH  18  21
ATOM     21  N   UNL     1       5.281  -0.843   0.341  0.00  0.00    -0.306 NA
ATOM     22  H   UNL     1       5.911  -1.633   0.063  0.00  0.00    +0.123 HD
BRANCH  21  23
ATOM     23  C   UNL     1       5.874   0.412  -0.148  0.00  0.00    +0.052 C 
ATOM     24  C   UNL     1       5.269   1.604   0.560  0.00  0.00    -0.062 C 
ATOM     25  C   UNL     1       6.167   2.272   1.278  0.00  0.00    -0.056 C 
ATOM     26  C   UNL     1       7.448   1.620   1.123  0.00  0.00    -0.020 A 
ATOM     27  C   UNL     1       8.686   1.970   1.661  0.00  0.00    -0.054 A 
ATOM     28  C   UNL     1       9.800   1.181   1.330  0.00  0.00    -0.061 A 
ATOM     29  C   UNL     1       9.656   0.073   0.469  0.00  0.00    -0.061 A 
ATOM     30  C   UNL     1       8.397  -0.254  -0.061  0.00  0.00    -0.056 A 
ATOM     31  C   UNL     1       7.300   0.537   0.292  0.00  0.00    -0.020 A 
ATOM     32  H   UNL     1       5.800   0.515  -1.254  0.00  0.00    +0.055 HD
ATOM     33  H   UNL     1       4.230   1.899   0.490  0.00  0.00    +0.059 HD
ATOM     34  H   UNL     1       5.965   3.160   1.863  0.00  0.00    +0.062 HD
ATOM     35  H   UNL     1       8.788   2.828   2.312  0.00  0.00    +0.062 HD
ATOM     36  H   UNL     1      10.774   1.428   1.732  0.00  0.00    +0.062 HD
ATOM     37  H   UNL     1      10.520  -0.526   0.214  0.00  0.00    +0.062 HD
ATOM     38  H   UNL     1       8.282  -1.097  -0.729  0.00  0.00    +0.062 HD
ENDBRANCH  21  23
ENDBRANCH  18  21
ENDBRANCH  15  18
ENDBRANCH  12  15
ENDBRANCH   5  11
BRANCH   1  39
ATOM     39  C   UNL     1      -4.162  -1.380   0.266  0.00  0.00    +0.019 C 
ATOM     40  H   UNL     1      -4.868  -2.105  -0.197  0.00  0.00    +0.040 HD
BRANCH  39  41
ATOM     41  C   UNL     1      -4.684   0.043   0.067  0.00  0.00    +0.087 A 
ATOM     42  C   UNL     1      -3.932   1.168   0.476  0.00  0.00    +0.292 A 
ATOM     43  O   UNL     1      -4.402   2.399   0.301  0.00  0.00    -0.425 OA
ATOM     44  C   UNL     1      -5.582   2.651  -0.251  0.00  0.00    +0.143 A 
ATOM     45  C   UNL     1      -6.006   3.976  -0.400  0.00  0.00    -0.019 A 
ATOM     46  C   UNL     1      -7.247   4.255  -0.980  0.00  0.00    -0.058 A 
ATOM     47  C   UNL     1      -8.069   3.211  -1.413  0.00  0.00    -0.061 A 
ATOM     48  C   UNL     1      -7.654   1.883  -1.269  0.00  0.00    -0.047 A 
ATOM     49  C   UNL     1      -6.406   1.592  -0.687  0.00  0.00    +0.064 A 
ATOM     50  C   UNL     1      -5.946   0.275  -0.521  0.00  0.00    +0.200 A 
ATOM     51  O   UNL     1      -6.663  -0.694  -0.897  0.00  0.00    -0.287 OA
ATOM     52  H   UNL     1      -5.375   4.790  -0.066  0.00  0.00    +0.065 HD
ATOM     53  H   UNL     1      -7.572   5.281  -1.093  0.00  0.00    +0.062 HD
ATOM     54  H   UNL     1      -9.029   3.432  -1.861  0.00  0.00    +0.062 HD
ATOM     55  H   UNL     1      -8.309   1.092  -1.613  0.00  0.00    +0.063 HD
BRANCH  42  56
ATOM     56  O   UNL     1      -2.683   1.010   1.068  0.00  0.00    -0.480 OA
ATOM     57  H   UNL     1      -2.141   1.814   1.359  0.00  0.00    +0.295 HD
ENDBRANCH  42  56
ENDBRANCH  39  41
BRANCH  39  58
ATOM     58  C   UNL     1      -4.111  -1.771   1.763  0.00  0.00    -0.045 C 
ATOM     59  H   UNL     1      -3.642  -2.774   1.864  0.00  0.00    +0.027 HD
ATOM     60  H   UNL     1      -3.502  -1.048   2.345  0.00  0.00    +0.027 HD
BRANCH  58  61
ATOM     61  C   UNL     1      -5.505  -1.838   2.389  0.00  0.00    -0.064 C 
ATOM     62  H   UNL     1      -5.989  -0.839   2.372  0.00  0.00    +0.023 HD
ATOM     63  H   UNL     1      -6.142  -2.565   1.842  0.00  0.00    +0.023 HD
ATOM     64  H   UNL     1      -5.420  -2.169   3.446  0.00  0.00    +0.023 HD
ENDBRANCH  58  61
ENDBRANCH  39  58
ENDBRANCH   1  39
TORSDOF 10
