REMARK  Name = 
REMARK  21 active torsions:
REMARK  status: ('A' for Active; 'I' for Inactive)
REMARK    1  A    between atoms: C_1  and  C_2
REMARK    2  A    between atoms: C_2  and  C_3
REMARK    3  A    between atoms: C_2  and  C_4
REMARK    4  A    between atoms: C_4  and  C_5
REMARK    5  A    between atoms: C_4  and  C_6
REMARK    6  A    between atoms: C_9  and  C_11
REMARK    7  A    between atoms: C_11  and  O_12
REMARK    8  A    between atoms: C_11  and  C_13
REMARK    9  A    between atoms: C_13  and  O_14
REMARK   10  A    between atoms: C_13  and  C_15
REMARK   11  A    between atoms: C_15  and  O_16
REMARK   12  A    between atoms: C_15  and  C_17
REMARK   13  A    between atoms: C_17  and  O_18
REMARK   14  A    between atoms: C_17  and  C_31
REMARK   15  A    between atoms: O_18  and  C_19
REMARK   16  A    between atoms: C_22  and  C_23
REMARK   17  A    between atoms: C_34  and  C_36
REMARK   18  A    between atoms: C_36  and  C_37
REMARK   19  A    between atoms: C_36  and  C_38
REMARK   20  A    between atoms: C_38  and  C_39
REMARK   21  A    between atoms: C_38  and  C_40
REMARK                            x       y       z     vdW  Elec       q    Type
REMARK                         _______ _______ _______ _____ _____    ______ ____
ROOT
ATOM      1  C   UNL     1       0.070  -0.007  -0.020  0.00  0.00    +0.204 C 
ATOM      2  H   UNL     1       0.459   0.693   0.752  0.00  0.00    +0.086 HD
ENDROOT
BRANCH   1   3
ATOM      3  C   UNL     1      -0.673  -1.135   0.651  0.00  0.00    +0.263 C 
ATOM      4  O   UNL     1      -0.396  -1.431   1.845  0.00  0.00    -0.271 OA
ATOM      5  N   UNL     1      -1.670  -1.874  -0.073  0.00  0.00    -0.253 N 
ATOM      6  C   UNL     1      -2.654  -2.712   0.556  0.00  0.00    +0.222 C 
ATOM      7  O   UNL     1      -2.594  -2.949   1.794  0.00  0.00    -0.275 OA
ATOM      8  H   UNL     1      -1.750  -1.710  -1.102  0.00  0.00    +0.158 HD
BRANCH   6   9
ATOM      9  C   UNL     1      -3.810  -3.255  -0.252  0.00  0.00    +0.035 C 
ATOM     10  H   UNL     1      -3.591  -3.105  -1.333  0.00  0.00    +0.039 HD
BRANCH   9  11
ATOM     11  C   UNL     1      -3.919  -4.772  -0.022  0.00  0.00    -0.054 C 
ATOM     12  H   UNL     1      -4.598  -5.233  -0.770  0.00  0.00    +0.024 HD
ATOM     13  H   UNL     1      -2.924  -5.252  -0.145  0.00  0.00    +0.024 HD
ATOM     14  H   UNL     1      -4.299  -4.990   0.999  0.00  0.00    +0.024 HD
ENDBRANCH   9  11
BRANCH   9  15
ATOM     15  C   UNL     1      -5.130  -2.501   0.092  0.00  0.00    -0.036 C 
ATOM     16  H   UNL     1      -5.366  -2.659   1.168  0.00  0.00    +0.030 HD
BRANCH  15  17
ATOM     17  C   UNL     1      -6.320  -3.023  -0.731  0.00  0.00    -0.062 C 
ATOM     18  H   UNL     1      -7.226  -2.409  -0.538  0.00  0.00    +0.023 HD
ATOM     19  H   UNL     1      -6.570  -4.065  -0.444  0.00  0.00    +0.023 HD
ATOM     20  H   UNL     1      -6.091  -2.987  -1.818  0.00  0.00    +0.023 HD
ENDBRANCH  15  17
BRANCH  15  21
ATOM     21  C   UNL     1      -4.987  -0.985  -0.139  0.00  0.00    -0.062 C 
ATOM     22  H   UNL     1      -4.229  -0.556   0.548  0.00  0.00    +0.023 HD
ATOM     23  H   UNL     1      -4.684  -0.775  -1.188  0.00  0.00    +0.023 HD
ATOM     24  H   UNL     1      -5.946  -0.465   0.068  0.00  0.00    +0.023 HD
ENDBRANCH  15  21
ENDBRANCH   9  15
ENDBRANCH   6   9
ENDBRANCH   1   3
BRANCH   1  25
ATOM     25  C   UNL     1       1.263  -0.562  -0.833  0.00  0.00    +0.129 C 
ATOM     26  H   UNL     1       0.848  -1.217  -1.631  0.00  0.00    +0.066 HD
BRANCH  25  27
ATOM     27  O   UNL     1       2.092  -1.356  -0.018  0.00  0.00    -0.385 OA
ATOM     28  H   UNL     1       2.414  -0.790   0.732  0.00  0.00    +0.210 HD
ENDBRANCH  25  27
BRANCH  25  29
ATOM     29  C   UNL     1       2.073   0.572  -1.522  0.00  0.00    +0.119 C 
ATOM     30  H   UNL     1       1.346   1.191  -2.099  0.00  0.00    +0.065 HD
BRANCH  29  31
ATOM     31  O   UNL     1       2.696   1.377  -0.553  0.00  0.00    -0.386 OA
ATOM     32  H   UNL     1       2.887   2.252  -0.981  0.00  0.00    +0.210 HD
ENDBRANCH  29  31
BRANCH  29  33
ATOM     33  C   UNL     1       3.108   0.030  -2.545  0.00  0.00    +0.159 C 
ATOM     34  H   UNL     1       2.578  -0.641  -3.262  0.00  0.00    +0.072 HD
BRANCH  33  38
ATOM     35  C   UNL     1       6.176  -0.784  -0.287  0.00  0.00    +0.222 C 
ATOM     36  O   UNL     1       6.114  -2.036  -0.153  0.00  0.00    -0.275 OA
ATOM     37  N   UNL     1       5.223  -0.097  -1.116  0.00  0.00    -0.254 N 
ATOM     38  C   UNL     1       4.208  -0.762  -1.888  0.00  0.00    +0.250 C 
ATOM     39  O   UNL     1       4.223  -2.016  -2.019  0.00  0.00    -0.272 OA
ATOM     40  H   UNL     1       5.251   0.947  -1.135  0.00  0.00    +0.158 HD
BRANCH  35  41
ATOM     41  C   UNL     1       7.202   0.012   0.489  0.00  0.00    +0.035 C 
ATOM     42  H   UNL     1       7.342   0.968  -0.064  0.00  0.00    +0.039 HD
BRANCH  41  43
ATOM     43  C   UNL     1       6.633   0.381   1.867  0.00  0.00    -0.054 C 
ATOM     44  H   UNL     1       7.370   0.972   2.450  0.00  0.00    +0.024 HD
ATOM     45  H   UNL     1       6.358  -0.528   2.442  0.00  0.00    +0.024 HD
ATOM     46  H   UNL     1       5.720   1.002   1.744  0.00  0.00    +0.024 HD
ENDBRANCH  41  43
BRANCH  41  47
ATOM     47  C   UNL     1       8.594  -0.696   0.546  0.00  0.00    -0.036 C 
ATOM     48  H   UNL     1       8.775  -1.175  -0.443  0.00  0.00    +0.030 HD
BRANCH  47  49
ATOM     49  C   UNL     1       8.695  -1.798   1.617  0.00  0.00    -0.062 C 
ATOM     50  H   UNL     1       9.655  -2.345   1.503  0.00  0.00    +0.023 HD
ATOM     51  H   UNL     1       7.875  -2.535   1.518  0.00  0.00    +0.023 HD
ATOM     52  H   UNL     1       8.665  -1.364   2.639  0.00  0.00    +0.023 HD
ENDBRANCH  47  49
BRANCH  47  53
ATOM     53  C   UNL     1       9.728   0.322   0.745  0.00  0.00    -0.062 C 
ATOM     54  H   UNL     1       9.714   1.082  -0.065  0.00  0.00    +0.023 HD
ATOM     55  H   UNL     1      10.713  -0.191   0.711  0.00  0.00    +0.023 HD
ATOM     56  H   UNL     1       9.633   0.838   1.723  0.00  0.00    +0.023 HD
ENDBRANCH  47  53
ENDBRANCH  41  47
ENDBRANCH  35  41
ENDBRANCH  33  38
BRANCH  33  57
ATOM     57  O   UNL     1       3.680   1.093  -3.262  0.00  0.00    -0.380 OA
ATOM     58  H   UNL     1       2.993   1.412  -3.904  0.00  0.00    +0.211 HD
ENDBRANCH  33  57
ENDBRANCH  29  33
ENDBRANCH  25  29
ENDBRANCH   1  25
BRANCH   1  59
ATOM     59  O   UNL     1      -0.813   0.705  -0.894  0.00  0.00    -0.477 OA
BRANCH  59  60
ATOM     60  C   UNL     1      -1.963   1.405  -0.495  0.00  0.00    +0.122 A 
ATOM     61  C   UNL     1      -2.845   1.845  -1.486  0.00  0.00    -0.019 A 
ATOM     62  C   UNL     1      -4.028   2.506  -1.144  0.00  0.00    -0.049 A 
ATOM     63  C   UNL     1      -4.343   2.757   0.203  0.00  0.00    +0.001 A 
ATOM     64  C   UNL     1      -3.446   2.326   1.199  0.00  0.00    -0.049 A 
ATOM     65  C   UNL     1      -2.266   1.662   0.854  0.00  0.00    -0.019 A 
ATOM     66  H   UNL     1      -2.622   1.656  -2.529  0.00  0.00    +0.065 HD
ATOM     67  H   UNL     1      -4.694   2.825  -1.935  0.00  0.00    +0.063 HD
ATOM     68  H   UNL     1      -3.667   2.471   2.248  0.00  0.00    +0.063 HD
ATOM     69  H   UNL     1      -1.605   1.340   1.647  0.00  0.00    +0.065 HD
BRANCH  63  70
ATOM     70  C   UNL     1      -5.618   3.434   0.550  0.00  0.00    +0.071 A 
ATOM     71  C   UNL     1      -5.747   4.222   1.709  0.00  0.00    -0.036 A 
ATOM     72  C   UNL     1      -6.969   4.838   1.990  0.00  0.00    -0.058 A 
ATOM     73  C   UNL     1      -8.048   4.673   1.122  0.00  0.00    -0.044 A 
ATOM     74  C   UNL     1      -7.887   3.895  -0.025  0.00  0.00    +0.028 A 
ATOM     75  N   UNL     1      -6.691   3.302  -0.283  0.00  0.00    -0.255 NA
ATOM     76  H   UNL     1      -4.913   4.382   2.379  0.00  0.00    +0.064 HD
ATOM     77  H   UNL     1      -7.076   5.447   2.878  0.00  0.00    +0.062 HD
ATOM     78  H   UNL     1      -8.997   5.148   1.332  0.00  0.00    +0.063 HD
ATOM     79  H   UNL     1      -8.712   3.761  -0.711  0.00  0.00    +0.083 HD
ENDBRANCH  63  70
ENDBRANCH  59  60
ENDBRANCH   1  59
TORSDOF 21
