REMARK  Name = 
REMARK  17 active torsions:
REMARK  status: ('A' for Active; 'I' for Inactive)
REMARK    1  A    between atoms: C_1  and  C_2
REMARK    2  A    between atoms: C_2  and  C_3
REMARK    3  A    between atoms: C_2  and  C_4
REMARK    4  A    between atoms: C_4  and  C_5
REMARK    5  A    between atoms: C_5  and  C_6
REMARK    6  A    between atoms: C_6  and  C_7
REMARK    7  A    between atoms: C_10  and  O_11
REMARK    8  A    between atoms: C_17  and  S_18
REMARK    9  A    between atoms: S_18  and  C_19
REMARK   10  A    between atoms: C_21  and  C_22
REMARK   11  A    between atoms: C_23  and  N_24
REMARK   12  A    between atoms: C_25  and  C_27
REMARK   13  A    between atoms: C_34  and  C_35
REMARK   14  A    between atoms: C_35  and  C_36
REMARK   15  A    between atoms: C_35  and  C_37
REMARK   16  A    between atoms: C_35  and  C_38
REMARK   17  A    between atoms: C_39  and  O_40
REMARK                            x       y       z     vdW  Elec       q    Type
REMARK                         _______ _______ _______ _____ _____    ______ ____
ROOT
ATOM      1  S   UNL     1      -0.901  -1.816  -3.823  0.00  0.00    -0.079 S 
ENDROOT
BRANCH   1   6
ATOM      2  C   UNL     1       2.349  -0.791  -0.724  0.00  0.00    +0.123 C 
ATOM      3  C   UNL     1       2.607  -0.148  -2.116  0.00  0.00    +0.051 C 
ATOM      4  C   UNL     1       1.444  -0.389  -3.037  0.00  0.00    +0.180 C 
ATOM      5  O   UNL     1       1.267   0.371  -4.023  0.00  0.00    -0.291 OA
ATOM      6  C   UNL     1       0.605  -1.590  -2.855  0.00  0.00    +0.135 C 
ATOM      7  C   UNL     1       0.952  -2.476  -1.909  0.00  0.00    +0.297 C 
ATOM      8  O   UNL     1       1.942  -2.148  -0.970  0.00  0.00    -0.456 OA
ATOM      9  H   UNL     1       2.838   0.934  -2.039  0.00  0.00    +0.038 HD
ATOM     10  H   UNL     1       3.489  -0.631  -2.590  0.00  0.00    +0.038 HD
BRANCH   2  11
ATOM     11  C   UNL     1       3.683  -0.789   0.100  0.00  0.00    -0.008 C 
ATOM     12  H   UNL     1       4.558  -0.652  -0.574  0.00  0.00    +0.031 HD
ATOM     13  H   UNL     1       3.713   0.070   0.799  0.00  0.00    +0.031 HD
BRANCH  11  14
ATOM     14  C   UNL     1       3.938  -2.084   0.895  0.00  0.00    -0.024 C 
ATOM     15  H   UNL     1       4.096  -2.929   0.189  0.00  0.00    +0.031 HD
ATOM     16  H   UNL     1       3.060  -2.345   1.519  0.00  0.00    +0.031 HD
BRANCH  14  17
ATOM     17  C   UNL     1       5.149  -1.935   1.776  0.00  0.00    -0.047 A 
ATOM     18  C   UNL     1       6.428  -2.246   1.284  0.00  0.00    -0.055 A 
ATOM     19  C   UNL     1       7.555  -2.074   2.093  0.00  0.00    -0.020 A 
ATOM     20  C   UNL     1       7.417  -1.580   3.397  0.00  0.00    +0.117 A 
ATOM     21  C   UNL     1       6.147  -1.257   3.886  0.00  0.00    -0.020 A 
ATOM     22  C   UNL     1       5.018  -1.428   3.079  0.00  0.00    -0.055 A 
ATOM     23  H   UNL     1       6.550  -2.619   0.275  0.00  0.00    +0.062 HD
ATOM     24  H   UNL     1       8.535  -2.321   1.704  0.00  0.00    +0.065 HD
ATOM     25  H   UNL     1       6.035  -0.869   4.890  0.00  0.00    +0.065 HD
ATOM     26  H   UNL     1       4.042  -1.163   3.468  0.00  0.00    +0.062 HD
BRANCH  20  27
ATOM     27  O   UNL     1       8.533  -1.405   4.212  0.00  0.00    -0.507 OA
ATOM     28  H   UNL     1       9.466  -1.629   3.887  0.00  0.00    +0.292 HD
ENDBRANCH  20  27
ENDBRANCH  14  17
ENDBRANCH  11  14
ENDBRANCH   2  11
BRANCH   2  29
ATOM     29  C   UNL     1       1.171  -0.051   0.036  0.00  0.00    -0.006 C 
ATOM     30  H   UNL     1       0.242  -0.185  -0.557  0.00  0.00    +0.033 HD
BRANCH  29  31
ATOM     31  C   UNL     1       1.341   1.475   0.177  0.00  0.00    -0.059 C 
ATOM     32  H   UNL     1       1.286   1.972  -0.813  0.00  0.00    +0.023 HD
ATOM     33  H   UNL     1       2.292   1.748   0.673  0.00  0.00    +0.023 HD
ATOM     34  H   UNL     1       0.508   1.896   0.781  0.00  0.00    +0.023 HD
ENDBRANCH  29  31
BRANCH  29  35
ATOM     35  C   UNL     1       0.865  -0.673   1.407  0.00  0.00    -0.059 C 
ATOM     36  H   UNL     1       1.686  -0.473   2.127  0.00  0.00    +0.023 HD
ATOM     37  H   UNL     1      -0.070  -0.240   1.821  0.00  0.00    +0.023 HD
ATOM     38  H   UNL     1       0.709  -1.768   1.313  0.00  0.00    +0.023 HD
ENDBRANCH  29  35
ENDBRANCH   2  29
BRANCH   7  39
ATOM     39  O   UNL     1       0.326  -3.716  -1.832  0.00  0.00    -0.479 OA
ATOM     40  H   UNL     1       0.580  -4.376  -1.107  0.00  0.00    +0.295 HD
ENDBRANCH   7  39
ENDBRANCH   1   6
BRANCH   1  41
ATOM     41  C   UNL     1      -1.937  -1.006  -2.577  0.00  0.00    +0.017 A 
ATOM     42  C   UNL     1      -2.246  -1.804  -1.465  0.00  0.00    -0.043 A 
ATOM     43  C   UNL     1      -2.765  -1.258  -0.290  0.00  0.00    -0.028 A 
ATOM     44  C   UNL     1      -2.993   0.123  -0.219  0.00  0.00    +0.037 A 
ATOM     45  C   UNL     1      -2.778   0.915  -1.354  0.00  0.00    -0.035 A 
ATOM     46  C   UNL     1      -2.326   0.375  -2.583  0.00  0.00    -0.026 A 
ATOM     47  H   UNL     1      -2.023  -2.863  -1.496  0.00  0.00    +0.063 HD
ATOM     48  H   UNL     1      -2.965   1.975  -1.265  0.00  0.00    +0.064 HD
BRANCH  44  49
ATOM     49  N   UNL     1      -3.407   0.728   1.018  0.00  0.00    -0.281 N 
ATOM     50  C   UNL     1      -4.489   1.673   1.109  0.00  0.00    +0.250 C 
ATOM     51  O   UNL     1      -5.142   1.981   0.074  0.00  0.00    -0.270 OA
ATOM     52  H   UNL     1      -2.900   0.441   1.884  0.00  0.00    +0.155 HD
BRANCH  50  53
ATOM     53  C   UNL     1      -4.860   2.293   2.404  0.00  0.00    +0.055 A 
ATOM     54  C   UNL     1      -4.640   1.637   3.627  0.00  0.00    -0.047 A 
ATOM     55  C   UNL     1      -5.007   2.249   4.827  0.00  0.00    -0.043 A 
ATOM     56  C   UNL     1      -5.600   3.511   4.799  0.00  0.00    +0.028 A 
ATOM     57  N   UNL     1      -5.821   4.132   3.611  0.00  0.00    -0.263 NA
ATOM     58  C   UNL     1      -5.474   3.558   2.428  0.00  0.00    +0.040 A 
ATOM     59  H   UNL     1      -4.213   0.644   3.664  0.00  0.00    +0.063 HD
ATOM     60  H   UNL     1      -4.841   1.745   5.771  0.00  0.00    +0.063 HD
ATOM     61  H   UNL     1      -5.890   3.995   5.722  0.00  0.00    +0.083 HD
ATOM     62  H   UNL     1      -5.666   4.095   1.508  0.00  0.00    +0.084 HD
ENDBRANCH  50  53
ENDBRANCH  44  49
BRANCH  43  63
ATOM     63  C   UNL     1      -2.991  -2.146   0.904  0.00  0.00    -0.038 C 
ATOM     64  H   UNL     1      -3.052  -3.215   0.607  0.00  0.00    +0.028 HD
ATOM     65  H   UNL     1      -3.946  -1.882   1.406  0.00  0.00    +0.028 HD
ATOM     66  H   UNL     1      -2.153  -2.023   1.622  0.00  0.00    +0.028 HD
ENDBRANCH  43  63
BRANCH  46  67
ATOM     67  C   UNL     1      -2.364   1.324  -3.817  0.00  0.00    -0.012 C 
BRANCH  67  68
ATOM     68  C   UNL     1      -3.801   1.889  -3.974  0.00  0.00    -0.056 C 
ATOM     69  H   UNL     1      -4.531   1.058  -4.081  0.00  0.00    +0.024 HD
ATOM     70  H   UNL     1      -3.880   2.541  -4.871  0.00  0.00    +0.024 HD
ATOM     71  H   UNL     1      -4.108   2.511  -3.109  0.00  0.00    +0.024 HD
ENDBRANCH  67  68
BRANCH  67  72
ATOM     72  C   UNL     1      -2.022   0.663  -5.171  0.00  0.00    -0.056 C 
ATOM     73  H   UNL     1      -0.945   0.425  -5.250  0.00  0.00    +0.024 HD
ATOM     74  H   UNL     1      -2.230   1.357  -6.015  0.00  0.00    +0.024 HD
ATOM     75  H   UNL     1      -2.641  -0.245  -5.336  0.00  0.00    +0.024 HD
ENDBRANCH  67  72
BRANCH  67  76
ATOM     76  C   UNL     1      -1.389   2.504  -3.596  0.00  0.00    -0.056 C 
ATOM     77  H   UNL     1      -1.722   3.160  -2.766  0.00  0.00    +0.024 HD
ATOM     78  H   UNL     1      -0.376   2.133  -3.346  0.00  0.00    +0.024 HD
ATOM     79  H   UNL     1      -1.319   3.136  -4.508  0.00  0.00    +0.024 HD
ENDBRANCH  67  76
ENDBRANCH  46  67
ENDBRANCH   1  41
TORSDOF 17
