REMARK  Name = 
REMARK  15 active torsions:
REMARK  status: ('A' for Active; 'I' for Inactive)
REMARK    1  A    between atoms: C_1  and  C_2
REMARK    2  A    between atoms: C_2  and  C_3
REMARK    3  A    between atoms: C_3  and  C_4
REMARK    4  A    between atoms: C_4  and  C_5
REMARK    5  A    between atoms: C_5  and  C_6
REMARK    6  A    between atoms: C_6  and  C_7
REMARK    7  A    between atoms: C_14  and  O_15
REMARK    8  A    between atoms: C_16  and  C_17
REMARK    9  A    between atoms: C_17  and  C_18
REMARK   10  A    between atoms: C_17  and  C_20
REMARK   11  A    between atoms: C_18  and  C_19
REMARK   12  A    between atoms: C_24  and  N_25
REMARK   13  A    between atoms: N_25  and  S_26
REMARK   14  A    between atoms: S_26  and  C_29
REMARK   15  A    between atoms: C_32  and  C_33
REMARK                            x       y       z     vdW  Elec       q    Type
REMARK                         _______ _______ _______ _____ _____    ______ ____
ROOT
ATOM      1  C   UNL     1      -1.863  -1.021  -1.162  0.00  0.00    +0.260 C 
ATOM      2  O   UNL     1      -1.408  -1.222   0.182  0.00  0.00    -0.421 OA
ATOM      3  C   UNL     1      -0.936  -0.178   0.990  0.00  0.00    +0.293 C 
ATOM      4  C   UNL     1      -0.536   0.984   0.438  0.00  0.00    +0.123 C 
ATOM      5  C   UNL     1      -0.525   1.047  -1.043  0.00  0.00    +0.346 C 
ATOM      6  O   UNL     1       0.001   2.013  -1.653  0.00  0.00    -0.245 OA
ATOM      7  O   UNL     1      -1.068  -0.006  -1.780  0.00  0.00    -0.419 OA
ENDROOT
BRANCH   1   8
ATOM      8  C   UNL     1      -3.328  -0.516  -1.141  0.00  0.00    +0.029 C 
ATOM      9  H   UNL     1      -3.352   0.462  -0.609  0.00  0.00    +0.034 HD
ATOM     10  H   UNL     1      -3.670  -0.326  -2.183  0.00  0.00    +0.034 HD
BRANCH   8  11
ATOM     11  C   UNL     1      -4.313  -1.472  -0.454  0.00  0.00    -0.021 C 
ATOM     12  H   UNL     1      -3.920  -1.780   0.539  0.00  0.00    +0.032 HD
ATOM     13  H   UNL     1      -4.438  -2.388  -1.069  0.00  0.00    +0.032 HD
BRANCH  11  14
ATOM     14  C   UNL     1      -5.653  -0.809  -0.278  0.00  0.00    -0.047 A 
ATOM     15  C   UNL     1      -6.620  -0.883  -1.294  0.00  0.00    -0.059 A 
ATOM     16  C   UNL     1      -7.851  -0.236  -1.143  0.00  0.00    -0.062 A 
ATOM     17  C   UNL     1      -8.120   0.496   0.017  0.00  0.00    -0.062 A 
ATOM     18  C   UNL     1      -7.157   0.586   1.026  0.00  0.00    -0.062 A 
ATOM     19  C   UNL     1      -5.925  -0.059   0.879  0.00  0.00    -0.059 A 
ATOM     20  H   UNL     1      -6.420  -1.439  -2.202  0.00  0.00    +0.062 HD
ATOM     21  H   UNL     1      -8.595  -0.300  -1.927  0.00  0.00    +0.062 HD
ATOM     22  H   UNL     1      -9.072   0.997   0.131  0.00  0.00    +0.062 HD
ATOM     23  H   UNL     1      -7.364   1.159   1.920  0.00  0.00    +0.062 HD
ATOM     24  H   UNL     1      -5.184   0.027   1.663  0.00  0.00    +0.062 HD
ENDBRANCH  11  14
ENDBRANCH   8  11
ENDBRANCH   1   8
BRANCH   1  25
ATOM     25  C   UNL     1      -1.703  -2.324  -1.994  0.00  0.00    +0.025 C 
ATOM     26  H   UNL     1      -2.497  -2.381  -2.770  0.00  0.00    +0.034 HD
ATOM     27  H   UNL     1      -0.734  -2.285  -2.539  0.00  0.00    +0.034 HD
BRANCH  25  28
ATOM     28  C   UNL     1      -1.700  -3.615  -1.153  0.00  0.00    -0.049 C 
ATOM     29  H   UNL     1      -2.594  -3.666  -0.501  0.00  0.00    +0.027 HD
ATOM     30  H   UNL     1      -0.798  -3.632  -0.503  0.00  0.00    +0.027 HD
BRANCH  28  31
ATOM     31  C   UNL     1      -1.675  -4.853  -2.046  0.00  0.00    -0.065 C 
ATOM     32  H   UNL     1      -0.772  -4.845  -2.693  0.00  0.00    +0.023 HD
ATOM     33  H   UNL     1      -2.584  -4.886  -2.683  0.00  0.00    +0.023 HD
ATOM     34  H   UNL     1      -1.652  -5.766  -1.414  0.00  0.00    +0.023 HD
ENDBRANCH  28  31
ENDBRANCH  25  28
ENDBRANCH   1  25
BRANCH   4  35
ATOM     35  C   UNL     1      -0.021   2.136   1.296  0.00  0.00    +0.023 C 
ATOM     36  H   UNL     1      -0.248   1.919   2.363  0.00  0.00    +0.040 HD
BRANCH  35  37
ATOM     37  C   UNL     1       1.495   2.235   1.183  0.00  0.00    -0.038 A 
ATOM     38  C   UNL     1       2.135   3.069   0.246  0.00  0.00    -0.058 A 
ATOM     39  C   UNL     1       3.527   3.078   0.141  0.00  0.00    -0.060 A 
ATOM     40  C   UNL     1       4.300   2.246   0.951  0.00  0.00    -0.039 A 
ATOM     41  C   UNL     1       3.684   1.387   1.877  0.00  0.00    +0.048 A 
ATOM     42  C   UNL     1       2.286   1.396   1.991  0.00  0.00    -0.036 A 
ATOM     43  H   UNL     1       1.573   3.719  -0.407  0.00  0.00    +0.062 HD
ATOM     44  H   UNL     1       4.009   3.731  -0.575  0.00  0.00    +0.062 HD
ATOM     45  H   UNL     1       5.376   2.280   0.851  0.00  0.00    +0.064 HD
ATOM     46  H   UNL     1       1.810   0.728   2.698  0.00  0.00    +0.064 HD
BRANCH  41  47
ATOM     47  N   UNL     1       4.451   0.497   2.705  0.00  0.00    -0.216 N 
ATOM     48  H   UNL     1       3.985   0.027   3.513  0.00  0.00    +0.174 HD
BRANCH  47  49
ATOM     49  S   UNL     1       6.043  -0.053   2.287  0.00  0.00    +0.072 S 
ATOM     50  O   UNL     1       7.028   1.054   2.537  0.00  0.00    -0.150 OA
ATOM     51  O   UNL     1       6.403  -1.233   3.143  0.00  0.00    -0.150 OA
BRANCH  49  52
ATOM     52  C   UNL     1       6.075  -0.549   0.597  0.00  0.00    +0.109 A 
ATOM     53  C   UNL     1       4.998  -1.269   0.062  0.00  0.00    -0.034 A 
ATOM     54  C   UNL     1       5.004  -1.649  -1.284  0.00  0.00    -0.042 A 
ATOM     55  C   UNL     1       6.091  -1.315  -2.102  0.00  0.00    +0.052 A 
ATOM     56  C   UNL     1       7.171  -0.600  -1.568  0.00  0.00    -0.042 A 
ATOM     57  C   UNL     1       7.164  -0.219  -0.223  0.00  0.00    -0.034 A 
ATOM     58  H   UNL     1       4.152  -1.531   0.685  0.00  0.00    +0.064 HD
ATOM     59  H   UNL     1       4.163  -2.201  -1.685  0.00  0.00    +0.063 HD
ATOM     60  H   UNL     1       8.017  -0.337  -2.192  0.00  0.00    +0.063 HD
ATOM     61  H   UNL     1       8.004   0.334   0.176  0.00  0.00    +0.064 HD
BRANCH  55  62
ATOM     62  C   UNL     1       6.097  -1.704  -3.488  0.00  0.00    +0.099 C 
ATOM     63  N   UNL     1       6.102  -2.017  -4.602  0.00  0.00    -0.191 NA
ENDBRANCH  55  62
ENDBRANCH  49  52
ENDBRANCH  47  49
ENDBRANCH  41  47
ENDBRANCH  35  37
BRANCH  35  64
ATOM     64  C   UNL     1      -0.795   3.447   1.011  0.00  0.00    -0.045 C 
ATOM     65  H   UNL     1      -1.884   3.244   1.109  0.00  0.00    +0.027 HD
ATOM     66  H   UNL     1      -0.632   3.812  -0.023  0.00  0.00    +0.027 HD
BRANCH  64  67
ATOM     67  C   UNL     1      -0.438   4.561   1.997  0.00  0.00    -0.064 C 
ATOM     68  H   UNL     1      -0.642   4.236   3.039  0.00  0.00    +0.023 HD
ATOM     69  H   UNL     1      -1.055   5.459   1.780  0.00  0.00    +0.023 HD
ATOM     70  H   UNL     1       0.632   4.841   1.905  0.00  0.00    +0.023 HD
ENDBRANCH  64  67
ENDBRANCH  35  64
ENDBRANCH   4  35
BRANCH   3  71
ATOM     71  O   UNL     1      -0.868  -0.381   2.365  0.00  0.00    -0.480 OA
ATOM     72  H   UNL     1      -1.163  -1.260   2.771  0.00  0.00    +0.295 HD
ENDBRANCH   3  71
TORSDOF 15
