REMARK  Name = 
REMARK  7 active torsions:
REMARK  status: ('A' for Active; 'I' for Inactive)
REMARK    1  A    between atoms: O_1  and  C_2
REMARK    2  A    between atoms: C_14  and  C_15
REMARK    3  A    between atoms: C_15  and  C_16
REMARK    4  A    between atoms: C_15  and  C_19
REMARK    5  A    between atoms: C_23  and  N_24
REMARK    6  A    between atoms: N_24  and  S_25
REMARK    7  A    between atoms: S_25  and  C_28
REMARK                            x       y       z     vdW  Elec       q    Type
REMARK                         _______ _______ _______ _____ _____    ______ ____
ROOT
ATOM      1  C   UNL     1      -0.335  -2.398   0.554  0.00  0.00    +0.022 C 
ATOM      2  H   UNL     1      -0.386  -3.318   1.178  0.00  0.00    +0.040 HD
ENDROOT
BRANCH   1  15
ATOM      3  C   UNL     1      -2.693  -2.097   1.437  0.00  0.00    +0.292 A 
ATOM      4  O   UNL     1      -3.930  -1.625   1.348  0.00  0.00    -0.429 OA
ATOM      5  C   UNL     1      -4.392  -0.955   0.298  0.00  0.00    +0.116 A 
ATOM      6  C   UNL     1      -5.838  -0.510   0.355  0.00  0.00    +0.006 C 
ATOM      7  C   UNL     1      -6.143   0.982   0.083  0.00  0.00    -0.046 C 
ATOM      8  C   UNL     1      -5.114   2.000   0.602  0.00  0.00    -0.053 C 
ATOM      9  C   UNL     1      -3.755   2.063  -0.134  0.00  0.00    -0.053 C 
ATOM     10  C   UNL     1      -3.760   1.676  -1.634  0.00  0.00    -0.049 C 
ATOM     11  C   UNL     1      -3.975   0.174  -1.949  0.00  0.00    -0.021 C 
ATOM     12  C   UNL     1      -3.546  -0.726  -0.812  0.00  0.00    +0.038 A 
ATOM     13  C   UNL     1      -2.220  -1.195  -0.747  0.00  0.00    +0.196 A 
ATOM     14  O   UNL     1      -1.424  -0.937  -1.691  0.00  0.00    -0.287 OA
ATOM     15  C   UNL     1      -1.778  -1.921   0.382  0.00  0.00    +0.087 A 
ATOM     16  H   UNL     1      -6.231  -0.753   1.367  0.00  0.00    +0.034 HD
ATOM     17  H   UNL     1      -6.423  -1.129  -0.359  0.00  0.00    +0.034 HD
ATOM     18  H   UNL     1      -7.108   1.209   0.587  0.00  0.00    +0.027 HD
ATOM     19  H   UNL     1      -6.359   1.165  -0.988  0.00  0.00    +0.027 HD
ATOM     20  H   UNL     1      -5.584   3.005   0.527  0.00  0.00    +0.027 HD
ATOM     21  H   UNL     1      -4.933   1.816   1.684  0.00  0.00    +0.027 HD
ATOM     22  H   UNL     1      -2.999   1.464   0.417  0.00  0.00    +0.027 HD
ATOM     23  H   UNL     1      -3.384   3.109  -0.061  0.00  0.00    +0.027 HD
ATOM     24  H   UNL     1      -4.520   2.282  -2.173  0.00  0.00    +0.027 HD
ATOM     25  H   UNL     1      -2.771   1.968  -2.049  0.00  0.00    +0.027 HD
ATOM     26  H   UNL     1      -5.027  -0.035  -2.223  0.00  0.00    +0.032 HD
ATOM     27  H   UNL     1      -3.413  -0.079  -2.874  0.00  0.00    +0.032 HD
BRANCH   3  28
ATOM     28  O   UNL     1      -2.310  -2.760   2.600  0.00  0.00    -0.480 OA
ATOM     29  H   UNL     1      -2.963  -2.884   3.364  0.00  0.00    +0.295 HD
ENDBRANCH   3  28
ENDBRANCH   1  15
BRANCH   1  30
ATOM     30  C   UNL     1       0.482  -1.361   1.316  0.00  0.00    -0.038 A 
ATOM     31  C   UNL     1       1.284  -1.761   2.400  0.00  0.00    -0.058 A 
ATOM     32  C   UNL     1       2.073  -0.832   3.080  0.00  0.00    -0.060 A 
ATOM     33  C   UNL     1       2.076   0.507   2.688  0.00  0.00    -0.039 A 
ATOM     34  C   UNL     1       1.282   0.929   1.612  0.00  0.00    +0.048 A 
ATOM     35  C   UNL     1       0.484  -0.004   0.936  0.00  0.00    -0.036 A 
ATOM     36  H   UNL     1       1.305  -2.797   2.716  0.00  0.00    +0.062 HD
ATOM     37  H   UNL     1       2.688  -1.152   3.912  0.00  0.00    +0.062 HD
ATOM     38  H   UNL     1       2.693   1.212   3.229  0.00  0.00    +0.064 HD
ATOM     39  H   UNL     1      -0.102   0.331   0.094  0.00  0.00    +0.064 HD
BRANCH  34  40
ATOM     40  N   UNL     1       1.296   2.295   1.176  0.00  0.00    -0.216 N 
ATOM     41  H   UNL     1       0.470   2.669   0.657  0.00  0.00    +0.174 HD
BRANCH  40  42
ATOM     42  S   UNL     1       2.777   3.189   1.065  0.00  0.00    +0.073 S 
ATOM     43  O   UNL     1       2.621   4.307   0.074  0.00  0.00    -0.150 OA
ATOM     44  O   UNL     1       3.095   3.778   2.411  0.00  0.00    -0.150 OA
BRANCH  42  45
ATOM     45  C   UNL     1       4.072   2.107   0.519  0.00  0.00    +0.116 A 
ATOM     46  C   UNL     1       5.198   1.947   1.342  0.00  0.00    -0.034 A 
ATOM     47  C   UNL     1       6.218   1.063   0.994  0.00  0.00    -0.059 A 
ATOM     48  C   UNL     1       6.132   0.318  -0.180  0.00  0.00    -0.054 A 
ATOM     49  C   UNL     1       5.024   0.457  -1.025  0.00  0.00    -0.016 A 
ATOM     50  C   UNL     1       4.945  -0.300  -2.205  0.00  0.00    -0.054 A 
ATOM     51  C   UNL     1       3.847  -0.166  -3.055  0.00  0.00    -0.061 A 
ATOM     52  C   UNL     1       2.820   0.721  -2.737  0.00  0.00    -0.061 A 
ATOM     53  C   UNL     1       2.881   1.480  -1.566  0.00  0.00    -0.052 A 
ATOM     54  C   UNL     1       3.979   1.361  -0.687  0.00  0.00    +0.009 A 
ATOM     55  H   UNL     1       5.287   2.500   2.267  0.00  0.00    +0.064 HD
ATOM     56  H   UNL     1       7.077   0.949   1.642  0.00  0.00    +0.062 HD
ATOM     57  H   UNL     1       6.934  -0.367  -0.428  0.00  0.00    +0.062 HD
ATOM     58  H   UNL     1       5.733  -0.995  -2.470  0.00  0.00    +0.062 HD
ATOM     59  H   UNL     1       3.791  -0.754  -3.962  0.00  0.00    +0.062 HD
ATOM     60  H   UNL     1       1.970   0.819  -3.399  0.00  0.00    +0.062 HD
ATOM     61  H   UNL     1       2.064   2.157  -1.369  0.00  0.00    +0.062 HD
ENDBRANCH  42  45
ENDBRANCH  40  42
ENDBRANCH  34  40
ENDBRANCH   1  30
BRANCH   1  62
ATOM     62  C   UNL     1       0.295  -2.895  -0.779  0.00  0.00    -0.030 C 
ATOM     63  C   UNL     1       1.615  -3.641  -0.611  0.00  0.00    -0.049 C 
ATOM     64  C   UNL     1       1.597  -2.290  -1.301  0.00  0.00    -0.049 C 
ATOM     65  H   UNL     1      -0.360  -3.398  -1.523  0.00  0.00    +0.031 HD
ATOM     66  H   UNL     1       2.080  -3.619   0.397  0.00  0.00    +0.027 HD
ATOM     67  H   UNL     1       1.762  -4.494  -1.308  0.00  0.00    +0.027 HD
ATOM     68  H   UNL     1       2.101  -1.501  -0.708  0.00  0.00    +0.027 HD
ATOM     69  H   UNL     1       1.728  -2.358  -2.401  0.00  0.00    +0.027 HD
ENDBRANCH   1  62
TORSDOF 7
