REMARK  Name = 
REMARK  14 active torsions:
REMARK  status: ('A' for Active; 'I' for Inactive)
REMARK    1  A    between atoms: C_1  and  C_2
REMARK    2  A    between atoms: C_2  and  C_3
REMARK    3  A    between atoms: C_2  and  C_4
REMARK    4  A    between atoms: C_4  and  C_5
REMARK    5  A    between atoms: C_5  and  N_6
REMARK    6  A    between atoms: N_6  and  C_7
REMARK    7  A    between atoms: N_6  and  S_33
REMARK    8  A    between atoms: C_7  and  C_8
REMARK    9  A    between atoms: C_8  and  O_9
REMARK   10  A    between atoms: C_8  and  C_10
REMARK   11  A    between atoms: C_24  and  C_25
REMARK   12  A    between atoms: C_25  and  C_26
REMARK   13  A    between atoms: C_25  and  C_27
REMARK   14  A    between atoms: S_33  and  C_36
REMARK                            x       y       z     vdW  Elec       q    Type
REMARK                         _______ _______ _______ _____ _____    ______ ____
ROOT
ATOM      1  C   UNL     1      -0.586  -0.896   2.176  0.00  0.00    +0.054 C 
ATOM      2  C   UNL     1      -2.039  -1.274   2.579  0.00  0.00    -0.007 C 
ATOM      3  C   UNL     1      -3.017  -1.214   1.430  0.00  0.00    -0.045 A 
ATOM      4  C   UNL     1      -3.053  -2.225   0.457  0.00  0.00    -0.055 A 
ATOM      5  C   UNL     1      -3.874  -2.091  -0.667  0.00  0.00    -0.020 A 
ATOM      6  C   UNL     1      -4.670  -0.952  -0.835  0.00  0.00    +0.121 A 
ATOM      7  O   UNL     1      -5.384  -0.807  -2.035  0.00  0.00    -0.492 OA
ATOM      8  C   UNL     1      -5.860   0.430  -2.578  0.00  0.00    +0.090 C 
ATOM      9  C   UNL     1      -4.777   1.151  -3.403  0.00  0.00    -0.018 C 
ATOM     10  C   UNL     1      -3.533   1.586  -2.607  0.00  0.00    -0.042 C 
ATOM     11  C   UNL     1      -3.784   2.795  -1.685  0.00  0.00    +0.024 C 
ATOM     12  C   UNL     1      -2.828   2.832  -0.520  0.00  0.00    +0.214 C 
ATOM     13  O   UNL     1      -3.269   3.135   0.620  0.00  0.00    -0.276 OA
ATOM     14  N   UNL     1      -1.426   2.571  -0.708  0.00  0.00    -0.304 N 
ATOM     15  C   UNL     1      -0.431   2.567   0.373  0.00  0.00    +0.102 C 
ATOM     16  C   UNL     1      -0.796   1.531   1.415  0.00  0.00    +0.234 C 
ATOM     17  O   UNL     1      -1.320   1.876   2.509  0.00  0.00    -0.274 OA
ATOM     18  N   UNL     1      -0.577   0.143   1.133  0.00  0.00    -0.308 N 
ATOM     19  C   UNL     1      -4.702   0.015   0.187  0.00  0.00    -0.020 A 
ATOM     20  C   UNL     1      -3.871  -0.109   1.300  0.00  0.00    -0.055 A 
ATOM     21  H   UNL     1      -0.083  -0.489   3.082  0.00  0.00    +0.053 HD
ATOM     22  H   UNL     1      -2.370  -0.576   3.379  0.00  0.00    +0.033 HD
ATOM     23  H   UNL     1      -2.083  -2.283   3.040  0.00  0.00    +0.033 HD
ATOM     24  H   UNL     1      -2.431  -3.105   0.555  0.00  0.00    +0.062 HD
ATOM     25  H   UNL     1      -3.859  -2.857  -1.432  0.00  0.00    +0.065 HD
ATOM     26  H   UNL     1      -6.692   0.188  -3.272  0.00  0.00    +0.070 HD
ATOM     27  H   UNL     1      -6.302   1.086  -1.805  0.00  0.00    +0.070 HD
ATOM     28  H   UNL     1      -4.447   0.463  -4.212  0.00  0.00    +0.030 HD
ATOM     29  H   UNL     1      -5.227   2.041  -3.893  0.00  0.00    +0.030 HD
ATOM     30  H   UNL     1      -3.117   0.728  -2.045  0.00  0.00    +0.027 HD
ATOM     31  H   UNL     1      -2.753   1.879  -3.342  0.00  0.00    +0.027 HD
ATOM     32  H   UNL     1      -3.672   3.733  -2.269  0.00  0.00    +0.036 HD
ATOM     33  H   UNL     1      -4.822   2.779  -1.294  0.00  0.00    +0.036 HD
ATOM     34  H   UNL     1      -1.078   2.391  -1.676  0.00  0.00    +0.149 HD
ATOM     35  H   UNL     1       0.540   2.246  -0.069  0.00  0.00    +0.060 HD
ATOM     36  H   UNL     1      -0.349  -0.121   0.148  0.00  0.00    +0.149 HD
ATOM     37  H   UNL     1      -5.343   0.880   0.129  0.00  0.00    +0.065 HD
ATOM     38  H   UNL     1      -3.879   0.671   2.050  0.00  0.00    +0.062 HD
ENDROOT
BRANCH  15  39
ATOM     39  C   UNL     1      -0.213   3.993   0.958  0.00  0.00    -0.020 C 
ATOM     40  H   UNL     1      -1.118   4.307   1.522  0.00  0.00    +0.032 HD
BRANCH  39  41
ATOM     41  C   UNL     1       0.983   4.019   1.925  0.00  0.00    -0.061 C 
ATOM     42  H   UNL     1       1.917   3.722   1.401  0.00  0.00    +0.023 HD
ATOM     43  H   UNL     1       0.820   3.330   2.779  0.00  0.00    +0.023 HD
ATOM     44  H   UNL     1       1.118   5.040   2.342  0.00  0.00    +0.023 HD
ENDBRANCH  39  41
BRANCH  39  45
ATOM     45  C   UNL     1       0.020   5.024  -0.159  0.00  0.00    -0.061 C 
ATOM     46  H   UNL     1      -0.880   5.115  -0.802  0.00  0.00    +0.023 HD
ATOM     47  H   UNL     1       0.219   6.027   0.277  0.00  0.00    +0.023 HD
ATOM     48  H   UNL     1       0.886   4.729  -0.789  0.00  0.00    +0.023 HD
ENDBRANCH  39  45
ENDBRANCH  15  39
BRANCH   1  49
ATOM     49  C   UNL     1       0.243  -2.129   1.718  0.00  0.00    +0.088 C 
ATOM     50  H   UNL     1      -0.199  -2.515   0.782  0.00  0.00    +0.063 HD
BRANCH  49  51
ATOM     51  C   UNL     1       1.716  -1.758   1.447  0.00  0.00    +0.048 C 
ATOM     52  H   UNL     1       1.803  -0.913   0.736  0.00  0.00    +0.047 HD
ATOM     53  H   UNL     1       2.152  -1.402   2.408  0.00  0.00    +0.047 HD
BRANCH  51  54
ATOM     54  N   UNL     1       2.463  -2.931   0.953  0.00  0.00    -0.174 NA
BRANCH  54  55
ATOM     55  S   UNL     1       2.188  -3.293  -0.748  0.00  0.00    +0.061 S 
ATOM     56  O   UNL     1       1.417  -4.581  -0.822  0.00  0.00    -0.153 OA
ATOM     57  O   UNL     1       3.492  -3.504  -1.469  0.00  0.00    -0.153 OA
BRANCH  55  58
ATOM     58  C   UNL     1       1.278  -2.045  -1.615  0.00  0.00    +0.105 A 
ATOM     59  C   UNL     1      -0.076  -2.241  -1.934  0.00  0.00    -0.035 A 
ATOM     60  C   UNL     1      -0.784  -1.264  -2.640  0.00  0.00    -0.060 A 
ATOM     61  C   UNL     1      -0.142  -0.089  -3.039  0.00  0.00    -0.062 A 
ATOM     62  C   UNL     1       1.204   0.114  -2.728  0.00  0.00    -0.060 A 
ATOM     63  C   UNL     1       1.915  -0.864  -2.026  0.00  0.00    -0.035 A 
ATOM     64  H   UNL     1      -0.588  -3.147  -1.635  0.00  0.00    +0.064 HD
ATOM     65  H   UNL     1      -1.827  -1.419  -2.882  0.00  0.00    +0.062 HD
ATOM     66  H   UNL     1      -0.684   0.662  -3.597  0.00  0.00    +0.062 HD
ATOM     67  H   UNL     1       1.699   1.024  -3.038  0.00  0.00    +0.062 HD
ATOM     68  H   UNL     1       2.960  -0.697  -1.808  0.00  0.00    +0.064 HD
ENDBRANCH  55  58
ENDBRANCH  54  55
BRANCH  54  69
ATOM     69  C   UNL     1       3.894  -2.920   1.322  0.00  0.00    +0.021 C 
ATOM     70  H   UNL     1       3.967  -2.997   2.428  0.00  0.00    +0.044 HD
ATOM     71  H   UNL     1       4.386  -3.830   0.917  0.00  0.00    +0.044 HD
BRANCH  69  72
ATOM     72  C   UNL     1       4.646  -1.655   0.851  0.00  0.00    -0.036 C 
ATOM     73  H   UNL     1       4.286  -0.766   1.414  0.00  0.00    +0.028 HD
ATOM     74  H   UNL     1       4.423  -1.481  -0.219  0.00  0.00    +0.028 HD
BRANCH  72  75
ATOM     75  C   UNL     1       6.177  -1.778   1.014  0.00  0.00    -0.046 C 
ATOM     76  H   UNL     1       6.520  -2.711   0.515  0.00  0.00    +0.030 HD
BRANCH  75  77
ATOM     77  C   UNL     1       6.876  -0.600   0.322  0.00  0.00    -0.063 C 
ATOM     78  H   UNL     1       7.979  -0.702   0.407  0.00  0.00    +0.023 HD
ATOM     79  H   UNL     1       6.567   0.364   0.782  0.00  0.00    +0.023 HD
ATOM     80  H   UNL     1       6.618  -0.580  -0.758  0.00  0.00    +0.023 HD
ENDBRANCH  75  77
BRANCH  75  81
ATOM     81  C   UNL     1       6.593  -1.836   2.491  0.00  0.00    -0.063 C 
ATOM     82  H   UNL     1       7.701  -1.848   2.579  0.00  0.00    +0.023 HD
ATOM     83  H   UNL     1       6.202  -0.956   3.045  0.00  0.00    +0.023 HD
ATOM     84  H   UNL     1       6.215  -2.763   2.968  0.00  0.00    +0.023 HD
ENDBRANCH  75  81
ENDBRANCH  72  75
ENDBRANCH  69  72
ENDBRANCH  54  69
ENDBRANCH  51  54
ENDBRANCH  49  51
BRANCH  49  85
ATOM     85  O   UNL     1       0.184  -3.165   2.670  0.00  0.00    -0.389 OA
ATOM     86  H   UNL     1       0.547  -2.809   3.523  0.00  0.00    +0.210 HD
ENDBRANCH  49  85
ENDBRANCH   1  49
TORSDOF 14
