REMARK  Name = 
REMARK  11 active torsions:
REMARK  status: ('A' for Active; 'I' for Inactive)
REMARK    1  A    between atoms: O_1  and  C_2
REMARK    2  A    between atoms: C_3  and  O_4
REMARK    3  A    between atoms: C_5  and  C_6
REMARK    4  A    between atoms: C_6  and  C_7
REMARK    5  A    between atoms: N_13  and  C_14
REMARK    6  A    between atoms: C_14  and  C_15
REMARK    7  A    between atoms: N_22  and  C_23
REMARK    8  A    between atoms: N_25  and  C_26
REMARK    9  A    between atoms: C_26  and  C_27
REMARK   10  A    between atoms: C_33  and  C_34
REMARK   11  A    between atoms: C_34  and  C_35
REMARK                            x       y       z     vdW  Elec       q    Type
REMARK                         _______ _______ _______ _____ _____    ______ ____
ROOT
ATOM      1  C   UNL     1       0.880   1.672  -1.088  0.00  0.00    +0.102 C 
ATOM      2  C   UNL     1      -0.340   1.349  -2.000  0.00  0.00    +0.102 C 
ATOM      3  C   UNL     1      -1.536   0.630  -1.290  0.00  0.00    +0.058 C 
ATOM      4  N   UNL     1      -1.181  -0.705  -0.733  0.00  0.00    -0.296 N 
ATOM      5  C   UNL     1       0.010  -1.371  -1.216  0.00  0.00    +0.197 C 
ATOM      6  N   UNL     1      -0.084  -2.388  -2.029  0.00  0.00    -0.142 NA
ATOM      7  N   UNL     1       1.317  -0.798  -0.953  0.00  0.00    -0.296 N 
ATOM      8  C   UNL     1       1.451   0.493  -0.241  0.00  0.00    +0.058 C 
ATOM      9  H   UNL     1       1.708   1.978  -1.773  0.00  0.00    +0.064 HD
ATOM     10  H   UNL     1      -0.716   2.340  -2.348  0.00  0.00    +0.064 HD
ATOM     11  H   UNL     1      -1.840   1.295  -0.463  0.00  0.00    +0.053 HD
ATOM     12  H   UNL     1       2.535   0.712  -0.118  0.00  0.00    +0.053 HD
ENDROOT
BRANCH   4  13
ATOM     13  C   UNL     1      -2.148  -1.522   0.050  0.00  0.00    +0.018 C 
ATOM     14  H   UNL     1      -1.755  -2.561   0.125  0.00  0.00    +0.047 HD
ATOM     15  H   UNL     1      -3.110  -1.628  -0.488  0.00  0.00    +0.047 HD
BRANCH  13  16
ATOM     16  C   UNL     1      -2.400  -1.047   1.506  0.00  0.00    -0.025 C 
ATOM     17  C   UNL     1      -3.123  -2.161   2.296  0.00  0.00    -0.049 C 
ATOM     18  C   UNL     1      -3.288  -1.799   3.786  0.00  0.00    -0.053 C 
ATOM     19  C   UNL     1      -3.506  -0.294   4.030  0.00  0.00    -0.053 C 
ATOM     20  C   UNL     1      -4.128   0.389   2.811  0.00  0.00    -0.053 C 
ATOM     21  C   UNL     1      -3.203   0.284   1.584  0.00  0.00    -0.049 C 
ATOM     22  H   UNL     1      -1.422  -0.912   2.007  0.00  0.00    +0.032 HD
ATOM     23  H   UNL     1      -4.126  -2.337   1.847  0.00  0.00    +0.027 HD
ATOM     24  H   UNL     1      -2.557  -3.116   2.230  0.00  0.00    +0.027 HD
ATOM     25  H   UNL     1      -2.383  -2.122   4.346  0.00  0.00    +0.027 HD
ATOM     26  H   UNL     1      -4.150  -2.368   4.195  0.00  0.00    +0.027 HD
ATOM     27  H   UNL     1      -4.165  -0.151   4.913  0.00  0.00    +0.027 HD
ATOM     28  H   UNL     1      -2.531   0.192   4.255  0.00  0.00    +0.027 HD
ATOM     29  H   UNL     1      -4.322   1.459   3.041  0.00  0.00    +0.027 HD
ATOM     30  H   UNL     1      -5.108  -0.088   2.584  0.00  0.00    +0.027 HD
ATOM     31  H   UNL     1      -2.487   1.130   1.641  0.00  0.00    +0.027 HD
ATOM     32  H   UNL     1      -3.829   0.420   0.677  0.00  0.00    +0.027 HD
ENDBRANCH  13  16
ENDBRANCH   4  13
BRANCH   3  33
ATOM     33  C   UNL     1      -2.744   0.505  -2.260  0.00  0.00    -0.006 C 
ATOM     34  H   UNL     1      -3.610   0.046  -1.747  0.00  0.00    +0.033 HD
ATOM     35  H   UNL     1      -2.477  -0.174  -3.100  0.00  0.00    +0.033 HD
BRANCH  33  36
ATOM     36  C   UNL     1      -3.219   1.838  -2.785  0.00  0.00    -0.046 A 
ATOM     37  C   UNL     1      -2.954   2.217  -4.113  0.00  0.00    -0.059 A 
ATOM     38  C   UNL     1      -3.376   3.463  -4.586  0.00  0.00    -0.062 A 
ATOM     39  C   UNL     1      -4.062   4.338  -3.740  0.00  0.00    -0.062 A 
ATOM     40  C   UNL     1      -4.327   3.970  -2.419  0.00  0.00    -0.062 A 
ATOM     41  C   UNL     1      -3.907   2.725  -1.941  0.00  0.00    -0.059 A 
ATOM     42  H   UNL     1      -2.416   1.552  -4.777  0.00  0.00    +0.062 HD
ATOM     43  H   UNL     1      -3.169   3.751  -5.609  0.00  0.00    +0.062 HD
ATOM     44  H   UNL     1      -4.387   5.303  -4.108  0.00  0.00    +0.062 HD
ATOM     45  H   UNL     1      -4.857   4.649  -1.764  0.00  0.00    +0.062 HD
ATOM     46  H   UNL     1      -4.115   2.453  -0.913  0.00  0.00    +0.062 HD
ENDBRANCH  33  36
ENDBRANCH   3  33
BRANCH   7  47
ATOM     47  C   UNL     1       2.507  -1.381  -1.607  0.00  0.00    +0.018 C 
ATOM     48  H   UNL     1       3.355  -0.666  -1.602  0.00  0.00    +0.047 HD
ATOM     49  H   UNL     1       2.280  -1.543  -2.683  0.00  0.00    +0.047 HD
BRANCH  47  50
ATOM     50  C   UNL     1       2.933  -2.721  -0.956  0.00  0.00    -0.025 C 
ATOM     51  C   UNL     1       3.459  -2.552   0.486  0.00  0.00    -0.049 C 
ATOM     52  C   UNL     1       4.849  -1.900   0.535  0.00  0.00    -0.053 C 
ATOM     53  C   UNL     1       5.852  -2.675  -0.325  0.00  0.00    -0.053 C 
ATOM     54  C   UNL     1       5.358  -2.808  -1.769  0.00  0.00    -0.053 C 
ATOM     55  C   UNL     1       3.972  -3.467  -1.821  0.00  0.00    -0.049 C 
ATOM     56  H   UNL     1       2.036  -3.374  -0.901  0.00  0.00    +0.032 HD
ATOM     57  H   UNL     1       2.746  -1.956   1.087  0.00  0.00    +0.027 HD
ATOM     58  H   UNL     1       3.520  -3.554   0.965  0.00  0.00    +0.027 HD
ATOM     59  H   UNL     1       5.206  -1.890   1.587  0.00  0.00    +0.027 HD
ATOM     60  H   UNL     1       4.794  -0.845   0.194  0.00  0.00    +0.027 HD
ATOM     61  H   UNL     1       6.828  -2.143  -0.319  0.00  0.00    +0.027 HD
ATOM     62  H   UNL     1       6.012  -3.687   0.109  0.00  0.00    +0.027 HD
ATOM     63  H   UNL     1       5.325  -1.808  -2.251  0.00  0.00    +0.027 HD
ATOM     64  H   UNL     1       6.077  -3.432  -2.343  0.00  0.00    +0.027 HD
ATOM     65  H   UNL     1       4.061  -4.515  -1.456  0.00  0.00    +0.027 HD
ATOM     66  H   UNL     1       3.627  -3.520  -2.876  0.00  0.00    +0.027 HD
ENDBRANCH  47  50
ENDBRANCH   7  47
BRANCH   8  67
ATOM     67  C   UNL     1       0.875   0.413   1.198  0.00  0.00    -0.006 C 
ATOM     68  H   UNL     1       0.912  -0.634   1.567  0.00  0.00    +0.033 HD
ATOM     69  H   UNL     1      -0.185   0.717   1.183  0.00  0.00    +0.033 HD
BRANCH  67  70
ATOM     70  C   UNL     1       1.615   1.286   2.187  0.00  0.00    -0.046 A 
ATOM     71  C   UNL     1       2.919   0.953   2.592  0.00  0.00    -0.059 A 
ATOM     72  C   UNL     1       3.600   1.755   3.512  0.00  0.00    -0.062 A 
ATOM     73  C   UNL     1       2.984   2.892   4.041  0.00  0.00    -0.062 A 
ATOM     74  C   UNL     1       1.684   3.226   3.654  0.00  0.00    -0.062 A 
ATOM     75  C   UNL     1       0.999   2.426   2.734  0.00  0.00    -0.059 A 
ATOM     76  H   UNL     1       3.408   0.074   2.198  0.00  0.00    +0.062 HD
ATOM     77  H   UNL     1       4.606   1.494   3.816  0.00  0.00    +0.062 HD
ATOM     78  H   UNL     1       3.513   3.512   4.754  0.00  0.00    +0.062 HD
ATOM     79  H   UNL     1       1.206   4.104   4.068  0.00  0.00    +0.062 HD
ATOM     80  H   UNL     1      -0.010   2.697   2.451  0.00  0.00    +0.062 HD
ENDBRANCH  67  70
ENDBRANCH   8  67
BRANCH   6  81
ATOM     81  C   UNL     1      -1.290  -2.936  -2.495  0.00  0.00    +0.208 C 
ATOM     82  N   UNL     1      -2.283  -3.387  -2.881  0.00  0.00    -0.169 NA
ENDBRANCH   6  81
BRANCH   2  83
ATOM     83  O   UNL     1       0.066   0.624  -3.136  0.00  0.00    -0.387 OA
ATOM     84  H   UNL     1       0.536   1.258  -3.740  0.00  0.00    +0.210 HD
ENDBRANCH   2  83
BRANCH   1  85
ATOM     85  O   UNL     1       0.577   2.767  -0.260  0.00  0.00    -0.387 OA
ATOM     86  H   UNL     1       0.629   3.586  -0.820  0.00  0.00    +0.210 HD
ENDBRANCH   1  85
TORSDOF 11
